; ligand.pdb.mol2_GMX.top created by acpype (v: 2022.7.21) on Tue Mar 24 12:36:21 2026

[ defaults ]
; nbfunc        comb-rule       gen-pairs       fudgeLJ fudgeQQ
1               2               yes             0.5     0.8333333333

; Include ligand.pdb.mol2_GMX.itp topology
#include "ligand.pdb.mol2_GMX.itp"

; Ligand position restraints
#ifdef POSRES_LIG
#include "posre_ligand.pdb.mol2.itp"
#endif

[ system ]
 ligand.pdb.mol2

[ molecules ]
; Compound        nmols
 ligand.pdb.mol2  1