; ligand.pdb.mol2_GMX_OPLS.itp created by acpype (v: 2022.7.21) on Tue Mar 24 12:36:21 2026

; For OPLS atomtypes manual fine tuning
; AC_at:OPLS_at:OPLScode: Possible_Alternatives (see ffoplsaa.atp and ffoplsaanb.itp)
; os:x:opls_x: []
; oh:OH:opls_154: ['167']
; o:O:opls_236: ['272']
; nb:x:opls_x: []
; cp:x:opls_x: []
; ca:CA:opls_145: ['166', '501', '502']
; c3:CT:opls_135: ['136', '137', '149', '157', '158', '206', '209', '210', '223B', '224B', '245', '246', '274', '283', '284', '285', '292', '292B', '293B', '296', '307', '308', '505']
; c:C:opls_235: ['271']
; h1:HC:opls_140: []
; hc:HC:opls_140: []
; ha:HA:opls_146: []
; h4:HA:opls_146: []
; ho:HO:opls_155: ['168']

[ moleculetype ]
;name            nrexcl
 ligand.pdb.mol2  3

[ atoms ]
;   nr  type  resi  res  atom  cgnr     charge      mass       ; qtot   bond_type
     1 opls_x     1   UNK     O    1    -0.395600      0.00000 ; qtot -0.396  x   
     2 opls_x     1   UNK    O1    2    -0.322900      0.00000 ; qtot -0.718  x   
     3 opls_154     1   UNK    O2    3    -0.616100     15.99940 ; qtot -1.335  OH  
     4 opls_236     1   UNK    O3    4    -0.530000     15.99940 ; qtot -1.865  O   
     5 opls_x     1   UNK     N    5    -0.670997      0.00000 ; qtot -2.536  x   
     6 opls_x     1   UNK    N1    6    -0.659000      0.00000 ; qtot -3.195  x   
     7 opls_x     1   UNK     C    7     0.084000      0.00000 ; qtot -3.111  x   
     8 opls_145     1   UNK    C1    8    -0.203600     12.01100 ; qtot -3.314  CA  
     9 opls_x     1   UNK    C2    9    -0.130300      0.00000 ; qtot -3.444  x   
    10 opls_135     1   UNK    C3   10     0.167400     12.01100 ; qtot -3.277  CT  
    11 opls_145     1   UNK    C4   11    -0.194300     12.01100 ; qtot -3.471  CA  
    12 opls_135     1   UNK    C5   12     0.147800     12.01100 ; qtot -3.324  CT  
    13 opls_145     1   UNK    C6   13     0.447600     12.01100 ; qtot -2.876  CA  
    14 opls_145     1   UNK    C7   14    -0.017300     12.01100 ; qtot -2.893  CA  
    15 opls_145     1   UNK    C8   15    -0.141300     12.01100 ; qtot -3.035  CA  
    16 opls_145     1   UNK    C9   16     0.147100     12.01100 ; qtot -2.887  CA  
    17 opls_135     1   UNK   C10   17    -0.077100     12.01100 ; qtot -2.965  CT  
    18 opls_145     1   UNK   C11   18     0.450600     12.01100 ; qtot -2.514  CA  
    19 opls_145     1   UNK   C12   19    -0.043000     12.01100 ; qtot -2.557  CA  
    20 opls_145     1   UNK   C13   20     0.409600     12.01100 ; qtot -2.147  CA  
    21 opls_135     1   UNK   C14   21     0.130400     12.01100 ; qtot -2.017  CT  
    22 opls_145     1   UNK   C15   22    -0.169000     12.01100 ; qtot -2.186  CA  
    23 opls_135     1   UNK   C16   23    -0.112767     12.01100 ; qtot -2.299  CT  
    24 opls_135     1   UNK   C17   24    -0.112767     12.01100 ; qtot -2.412  CT  
    25 opls_135     1   UNK   C18   25    -0.112767     12.01100 ; qtot -2.524  CT  
    26 opls_145     1   UNK   C19   26    -0.255300     12.01100 ; qtot -2.780  CA  
    27 opls_145     1   UNK   C20   27    -0.095000     12.01100 ; qtot -2.875  CA  
    28 opls_235     1   UNK   C21   28     0.618100     12.01100 ; qtot -2.256  C   
    29 opls_135     1   UNK   C22   29    -0.164400     12.01100 ; qtot -2.421  CT  
    30 opls_145     1   UNK   C23   30     0.427200     12.01100 ; qtot -1.994  CA  
    31 opls_145     1   UNK   C24   31    -0.173300     12.01100 ; qtot -2.167  CA  
    32 opls_145     1   UNK   C25   32    -0.137000     12.01100 ; qtot -2.304  CA  
    33 opls_145     1   UNK   C26   33    -0.119000     12.01100 ; qtot -2.423  CA  
    34 opls_140     1   UNK     H   34     0.081700      1.00800 ; qtot -2.341  HC  
    35 opls_140     1   UNK    H1   35     0.071200      1.00800 ; qtot -2.270  HC  
    36 opls_140     1   UNK    H2   36     0.071200      1.00800 ; qtot -2.199  HC  
    37 opls_146     1   UNK    H3   37     0.148000      1.00800 ; qtot -2.051  HA  
    38 opls_140     1   UNK    H4   38     0.060700      1.00800 ; qtot -1.990  HC  
    39 opls_140     1   UNK    H5   39     0.060700      1.00800 ; qtot -1.929  HC  
    40 opls_146     1   UNK    H6   40     0.151000      1.00800 ; qtot -1.778  HA  
    41 opls_140     1   UNK    H7   41     0.048033      1.00800 ; qtot -1.730  HC  
    42 opls_140     1   UNK    H8   42     0.048033      1.00800 ; qtot -1.682  HC  
    43 opls_140     1   UNK    H9   43     0.048033      1.00800 ; qtot -1.634  HC  
    44 opls_140     1   UNK   H10   44     0.048033      1.00800 ; qtot -1.586  HC  
    45 opls_140     1   UNK   H11   45     0.048033      1.00800 ; qtot -1.538  HC  
    46 opls_140     1   UNK   H12   46     0.048033      1.00800 ; qtot -1.490  HC  
    47 opls_140     1   UNK   H13   47     0.048033      1.00800 ; qtot -1.442  HC  
    48 opls_140     1   UNK   H14   48     0.048033      1.00800 ; qtot -1.394  HC  
    49 opls_140     1   UNK   H15   49     0.048033      1.00800 ; qtot -1.346  HC  
    50 opls_146     1   UNK   H16   50     0.144000      1.00800 ; qtot -1.202  HA  
    51 opls_146     1   UNK   H17   51     0.141000      1.00800 ; qtot -1.061  HA  
    52 opls_140     1   UNK   H18   52     0.060367      1.00800 ; qtot -1.001  HC  
    53 opls_140     1   UNK   H19   53     0.060367      1.00800 ; qtot -0.940  HC  
    54 opls_140     1   UNK   H20   54     0.060367      1.00800 ; qtot -0.880  HC  
    55 opls_146     1   UNK   H21   55     0.022100      1.00800 ; qtot -0.858  HA  
    56 opls_146     1   UNK   H22   56     0.149000      1.00800 ; qtot -0.709  HA  
    57 opls_146     1   UNK   H23   57     0.133000      1.00800 ; qtot -0.576  HA  
    58 opls_146     1   UNK   H24   58     0.133000      1.00800 ; qtot -0.443  HA  
    59 opls_155     1   UNK   H25   59     0.443000      1.00800 ; qtot  0.000  HO  

[ bonds ]
;   ai     aj funct   r             k
     1     10   1 ;    1.4320e-01    2.3832e+05 ;      O - C3          x - CT    
     1     12   1 ;    1.4320e-01    2.3832e+05 ;      O - C5          x - CT    
     2     16   1 ;    1.3700e-01    2.9916e+05 ;     O1 - C9          x - CA    
     2     21   1 ;    1.4320e-01    2.3832e+05 ;     O1 - C14         x - CT    
     3     28   1 ;    1.3510e-01    3.2058e+05 ;     O2 - C21        OH - C     
     3     59   1 ;    9.7300e-02    4.7154e+05 ;     O2 - H25        OH - HO    
     4     28   1 ;    1.2180e-01    5.4610e+05 ;     O3 - C21         O - C     
     5     18   1 ;    1.3390e-01    3.4660e+05 ;      N - C11         x - CA    
     5     20   1 ;    1.3390e-01    3.4660e+05 ;      N - C13         x - CA    
     6     13   1 ;    1.3390e-01    3.4660e+05 ;     N1 - C6          x - CA    
     6     30   1 ;    1.3390e-01    3.4660e+05 ;     N1 - C23         x - CA    
     7      8   1 ;    1.4060e-01    3.0828e+05 ;      C - C1          x - CA    
     7      9   1 ;    1.4850e-01    2.3230e+05 ;      C - C2          x - x     
     7     15   1 ;    1.4060e-01    3.0828e+05 ;      C - C8          x - CA    
     8     10   1 ;    1.5160e-01    2.0945e+05 ;     C1 - C3         CA - CT    
     8     18   1 ;    1.3980e-01    3.1681e+05 ;     C1 - C11        CA - CA    
     9     13   1 ;    1.4060e-01    3.0828e+05 ;     C2 - C6          x - CA    
     9     19   1 ;    1.4060e-01    3.0828e+05 ;     C2 - C12         x - CA    
    10     28   1 ;    1.5240e-01    2.0351e+05 ;     C3 - C21        CT - C     
    10     34   1 ;    1.0970e-01    3.1455e+05 ;     C3 - H          CT - HC    
    11     13   1 ;    1.3980e-01    3.1681e+05 ;     C4 - C6         CA - CA    
    11     14   1 ;    1.3980e-01    3.1681e+05 ;     C4 - C7         CA - CA    
    11     16   1 ;    1.3980e-01    3.1681e+05 ;     C4 - C9         CA - CA    
    12     23   1 ;    1.5380e-01    1.9456e+05 ;     C5 - C16        CT - CT    
    12     24   1 ;    1.5380e-01    1.9456e+05 ;     C5 - C17        CT - CT    
    12     25   1 ;    1.5380e-01    1.9456e+05 ;     C5 - C18        CT - CT    
    14     17   1 ;    1.5160e-01    2.0945e+05 ;     C7 - C10        CA - CT    
    14     26   1 ;    1.3980e-01    3.1681e+05 ;     C7 - C19        CA - CA    
    15     20   1 ;    1.3980e-01    3.1681e+05 ;     C8 - C13        CA - CA    
    15     27   1 ;    1.3980e-01    3.1681e+05 ;     C8 - C20        CA - CA    
    16     22   1 ;    1.3980e-01    3.1681e+05 ;     C9 - C15        CA - CA    
    17     21   1 ;    1.5380e-01    1.9456e+05 ;    C10 - C14        CT - CT    
    17     35   1 ;    1.0970e-01    3.1455e+05 ;    C10 - H1         CT - HC    
    17     36   1 ;    1.0970e-01    3.1455e+05 ;    C10 - H2         CT - HC    
    18     29   1 ;    1.5160e-01    2.0945e+05 ;    C11 - C22        CA - CT    
    19     22   1 ;    1.3980e-01    3.1681e+05 ;    C12 - C15        CA - CA    
    19     37   1 ;    1.0860e-01    3.3112e+05 ;    C12 - H3         CA - HA    
    20     31   1 ;    1.3980e-01    3.1681e+05 ;    C13 - C24        CA - CA    
    21     38   1 ;    1.0970e-01    3.1455e+05 ;    C14 - H4         CT - HC    
    21     39   1 ;    1.0970e-01    3.1455e+05 ;    C14 - H5         CT - HC    
    22     40   1 ;    1.0860e-01    3.3112e+05 ;    C15 - H6         CA - HA    
    23     41   1 ;    1.0970e-01    3.1455e+05 ;    C16 - H7         CT - HC    
    23     42   1 ;    1.0970e-01    3.1455e+05 ;    C16 - H8         CT - HC    
    23     43   1 ;    1.0970e-01    3.1455e+05 ;    C16 - H9         CT - HC    
    24     44   1 ;    1.0970e-01    3.1455e+05 ;    C17 - H10        CT - HC    
    24     45   1 ;    1.0970e-01    3.1455e+05 ;    C17 - H11        CT - HC    
    24     46   1 ;    1.0970e-01    3.1455e+05 ;    C17 - H12        CT - HC    
    25     47   1 ;    1.0970e-01    3.1455e+05 ;    C18 - H13        CT - HC    
    25     48   1 ;    1.0970e-01    3.1455e+05 ;    C18 - H14        CT - HC    
    25     49   1 ;    1.0970e-01    3.1455e+05 ;    C18 - H15        CT - HC    
    26     30   1 ;    1.3980e-01    3.1681e+05 ;    C19 - C23        CA - CA    
    26     50   1 ;    1.0860e-01    3.3112e+05 ;    C19 - H16        CA - HA    
    27     32   1 ;    1.3980e-01    3.1681e+05 ;    C20 - C25        CA - CA    
    27     51   1 ;    1.0860e-01    3.3112e+05 ;    C20 - H17        CA - HA    
    29     52   1 ;    1.0970e-01    3.1455e+05 ;    C22 - H18        CT - HC    
    29     53   1 ;    1.0970e-01    3.1455e+05 ;    C22 - H19        CT - HC    
    29     54   1 ;    1.0970e-01    3.1455e+05 ;    C22 - H20        CT - HC    
    30     55   1 ;    1.0890e-01    3.2644e+05 ;    C23 - H21        CA - HA    
    31     33   1 ;    1.3980e-01    3.1681e+05 ;    C24 - C26        CA - CA    
    31     56   1 ;    1.0860e-01    3.3112e+05 ;    C24 - H22        CA - HA    
    32     33   1 ;    1.3980e-01    3.1681e+05 ;    C25 - C26        CA - CA    
    32     57   1 ;    1.0860e-01    3.3112e+05 ;    C25 - H23        CA - HA    
    33     58   1 ;    1.0860e-01    3.3112e+05 ;    C26 - H24        CA - HA    

[ pairs ]
;   ai     aj    funct
     1      3      1 ;      O - O2    
     1      4      1 ;      O - O3    
     1      7      1 ;      O - C     
     1     18      1 ;      O - C11   
     1     41      1 ;      O - H7    
     1     42      1 ;      O - H8    
     1     43      1 ;      O - H9    
     1     44      1 ;      O - H10   
     1     45      1 ;      O - H11   
     1     46      1 ;      O - H12   
     1     47      1 ;      O - H13   
     1     48      1 ;      O - H14   
     1     49      1 ;      O - H15   
     2     13      1 ;     O1 - C6    
     2     14      1 ;     O1 - C7    
     2     19      1 ;     O1 - C12   
     2     35      1 ;     O1 - H1    
     2     36      1 ;     O1 - H2    
     2     40      1 ;     O1 - H6    
     3      8      1 ;     O2 - C1    
     3     34      1 ;     O2 - H     
     4      8      1 ;     O3 - C1    
     4     34      1 ;     O3 - H     
     4     59      1 ;     O3 - H25   
     5      7      1 ;      N - C     
     5     10      1 ;      N - C3    
     5     27      1 ;      N - C20   
     5     33      1 ;      N - C26   
     5     52      1 ;      N - H18   
     5     53      1 ;      N - H19   
     5     54      1 ;      N - H20   
     5     56      1 ;      N - H22   
     6      7      1 ;     N1 - C     
     6     14      1 ;     N1 - C7    
     6     16      1 ;     N1 - C9    
     6     19      1 ;     N1 - C12   
     6     50      1 ;     N1 - H16   
     7     11      1 ;      C - C4    
     7     22      1 ;      C - C15   
     7     28      1 ;      C - C21   
     7     29      1 ;      C - C22   
     7     31      1 ;      C - C24   
     7     32      1 ;      C - C25   
     7     34      1 ;      C - H     
     7     37      1 ;      C - H3    
     7     51      1 ;      C - H17   
     8     13      1 ;     C1 - C6    
     8     19      1 ;     C1 - C12   
     8     20      1 ;     C1 - C13   
     8     27      1 ;     C1 - C20   
     8     52      1 ;     C1 - H18   
     8     53      1 ;     C1 - H19   
     8     54      1 ;     C1 - H20   
     9     10      1 ;     C2 - C3    
     9     14      1 ;     C2 - C7    
     9     16      1 ;     C2 - C9    
     9     18      1 ;     C2 - C11   
     9     20      1 ;     C2 - C13   
     9     27      1 ;     C2 - C20   
     9     30      1 ;     C2 - C23   
     9     40      1 ;     C2 - H6    
    10     15      1 ;     C3 - C8    
    10     23      1 ;     C3 - C16   
    10     24      1 ;     C3 - C17   
    10     25      1 ;     C3 - C18   
    10     29      1 ;     C3 - C22   
    10     59      1 ;     C3 - H25   
    11     19      1 ;     C4 - C12   
    11     21      1 ;     C4 - C14   
    11     30      1 ;     C4 - C23   
    11     35      1 ;     C4 - H1    
    11     36      1 ;     C4 - H2    
    11     40      1 ;     C4 - H6    
    11     50      1 ;     C4 - H16   
    12      8      1 ;     C5 - C1    
    12     28      1 ;     C5 - C21   
    12     34      1 ;     C5 - H     
    13     15      1 ;     C6 - C8    
    13     17      1 ;     C6 - C10   
    13     22      1 ;     C6 - C15   
    13     26      1 ;     C6 - C19   
    13     37      1 ;     C6 - H3    
    13     55      1 ;     C6 - H21   
    14     22      1 ;     C7 - C15   
    14     38      1 ;     C7 - H4    
    14     39      1 ;     C7 - H5    
    14     55      1 ;     C7 - H21   
    15     18      1 ;     C8 - C11   
    15     19      1 ;     C8 - C12   
    15     33      1 ;     C8 - C26   
    15     56      1 ;     C8 - H22   
    15     57      1 ;     C8 - H23   
    16     17      1 ;     C9 - C10   
    16     26      1 ;     C9 - C19   
    16     37      1 ;     C9 - H3    
    16     38      1 ;     C9 - H4    
    16     39      1 ;     C9 - H5    
    17     30      1 ;    C10 - C23   
    17     50      1 ;    C10 - H16   
    18     28      1 ;    C11 - C21   
    18     31      1 ;    C11 - C24   
    18     34      1 ;    C11 - H     
    20     29      1 ;    C13 - C22   
    20     32      1 ;    C13 - C25   
    20     51      1 ;    C13 - H17   
    20     58      1 ;    C13 - H24   
    21     22      1 ;    C14 - C15   
    21     26      1 ;    C14 - C19   
    23     44      1 ;    C16 - H10   
    23     45      1 ;    C16 - H11   
    23     46      1 ;    C16 - H12   
    23     47      1 ;    C16 - H13   
    23     48      1 ;    C16 - H14   
    23     49      1 ;    C16 - H15   
    24     41      1 ;    C17 - H7    
    24     42      1 ;    C17 - H8    
    24     43      1 ;    C17 - H9    
    24     47      1 ;    C17 - H13   
    24     48      1 ;    C17 - H14   
    24     49      1 ;    C17 - H15   
    25     41      1 ;    C18 - H7    
    25     42      1 ;    C18 - H8    
    25     43      1 ;    C18 - H9    
    25     44      1 ;    C18 - H10   
    25     45      1 ;    C18 - H11   
    25     46      1 ;    C18 - H12   
    26     35      1 ;    C19 - H1    
    26     36      1 ;    C19 - H2    
    27     31      1 ;    C20 - C24   
    27     58      1 ;    C20 - H24   
    31     57      1 ;    C24 - H23   
    32     56      1 ;    C25 - H22   
    33     51      1 ;    C26 - H17   
    35     38      1 ;     H1 - H4    
    35     39      1 ;     H1 - H5    
    36     38      1 ;     H2 - H4    
    36     39      1 ;     H2 - H5    
    37     40      1 ;     H3 - H6    
    50     55      1 ;    H16 - H21   
    51     57      1 ;    H17 - H23   
    56     58      1 ;    H22 - H24   
    57     58      1 ;    H23 - H24   

[ angles ]
;   ai     aj     ak    funct   theta         cth
     1     10      8      1 ;    1.0895e+02    7.1630e+02 ;      O - C3   - C1        x -   CT - CA  
     1     10     28      1 ;    1.0921e+02    7.1379e+02 ;      O - C3   - C21       x -   CT - C   
     1     10     34      1 ;    1.0978e+02    5.2216e+02 ;      O - C3   - H         x -   CT - HC  
     1     12     23      1 ;    1.0797e+02    7.1379e+02 ;      O - C5   - C16       x -   CT - CT  
     1     12     24      1 ;    1.0797e+02    7.1379e+02 ;      O - C5   - C17       x -   CT - CT  
     1     12     25      1 ;    1.0797e+02    7.1379e+02 ;      O - C5   - C18       x -   CT - CT  
     2     16     11      1 ;    1.1920e+02    7.3053e+02 ;     O1 - C9   - C4        x -   CA - CA  
     2     16     22      1 ;    1.1920e+02    7.3053e+02 ;     O1 - C9   - C15       x -   CA - CA  
     2     21     17      1 ;    1.0797e+02    7.1379e+02 ;     O1 - C14  - C10       x -   CT - CT  
     2     21     38      1 ;    1.0978e+02    5.2216e+02 ;     O1 - C14  - H4        x -   CT - HC  
     2     21     39      1 ;    1.0978e+02    5.2216e+02 ;     O1 - C14  - H5        x -   CT - HC  
     3     28      4      1 ;    1.2210e+02    9.6818e+02 ;     O2 - C21  - O3       OH -    C - O   
     3     28     10      1 ;    1.1273e+02    7.1797e+02 ;     O2 - C21  - C3       OH -    C - CT  
     4     28     10      1 ;    1.2320e+02    7.0793e+02 ;     O3 - C21  - C3        O -    C - CT  
     5     18      8      1 ;    1.2294e+02    7.2634e+02 ;      N - C11  - C1        x -   CA - CA  
     5     18     29      1 ;    1.1668e+02    7.1044e+02 ;      N - C11  - C22       x -   CA - CT  
     5     20     15      1 ;    1.2294e+02    7.2634e+02 ;      N - C13  - C8        x -   CA - CA  
     5     20     31      1 ;    1.2294e+02    7.2634e+02 ;      N - C13  - C24       x -   CA - CA  
     6     13      9      1 ;    1.2358e+02    7.2300e+02 ;     N1 - C6   - C2        x -   CA - x   
     6     13     11      1 ;    1.2294e+02    7.2634e+02 ;     N1 - C6   - C4        x -   CA - CA  
     6     30     26      1 ;    1.2294e+02    7.2634e+02 ;     N1 - C23  - C19       x -   CA - CA  
     6     30     55      1 ;    1.1603e+02    5.3639e+02 ;     N1 - C23  - H21       x -   CA - HA  
     7      8     10      1 ;    1.2063e+02    5.4810e+02 ;      C - C1   - C3        x -   CA - CT  
     7      8     18      1 ;    1.2069e+02    5.7237e+02 ;      C - C1   - C11       x -   CA - CA  
     7      9     13      1 ;    1.2111e+02    5.5312e+02 ;      C - C2   - C6        x -    x - CA  
     7      9     19      1 ;    1.2111e+02    5.5312e+02 ;      C - C2   - C12       x -    x - CA  
     7     15     20      1 ;    1.2069e+02    5.7237e+02 ;      C - C8   - C13       x -   CA - CA  
     7     15     27      1 ;    1.2069e+02    5.7237e+02 ;      C - C8   - C20       x -   CA - CA  
     8      7      9      1 ;    1.2111e+02    5.5312e+02 ;     C1 - C    - C2       CA -    x - x   
     8      7     15      1 ;    1.1838e+02    5.7656e+02 ;     C1 - C    - C8       CA -    x - CA  
     8     10     28      1 ;    1.1101e+02    5.5061e+02 ;     C1 - C3   - C21      CA -   CT - C   
     8     10     34      1 ;    1.0956e+02    3.9748e+02 ;     C1 - C3   - H        CA -   CT - HC  
     8     18     29      1 ;    1.2077e+02    5.4894e+02 ;     C1 - C11  - C22      CA -   CA - CT  
     9      7     15      1 ;    1.2111e+02    5.5312e+02 ;     C2 - C    - C8        x -    x - CA  
     9     13     11      1 ;    1.2069e+02    5.7237e+02 ;     C2 - C6   - C4        x -   CA - CA  
     9     19     22      1 ;    1.2069e+02    5.7237e+02 ;     C2 - C12  - C15       x -   CA - CA  
     9     19     37      1 ;    1.1986e+02    4.0585e+02 ;     C2 - C12  - H3        x -   CA - HA  
    10      1     12      1 ;    1.1248e+02    5.5480e+02 ;     C3 - O    - C5       CT -    x - CT  
    10      8     18      1 ;    1.2077e+02    5.4894e+02 ;     C3 - C1   - C11      CT -   CA - CA  
    11     14     17      1 ;    1.2077e+02    5.4894e+02 ;     C4 - C7   - C10      CA -   CA - CT  
    11     14     26      1 ;    1.2002e+02    5.7572e+02 ;     C4 - C7   - C19      CA -   CA - CA  
    11     16     22      1 ;    1.2002e+02    5.7572e+02 ;     C4 - C9   - C15      CA -   CA - CA  
    12     23     41      1 ;    1.0980e+02    3.9162e+02 ;     C5 - C16  - H7       CT -   CT - HC  
    12     23     42      1 ;    1.0980e+02    3.9162e+02 ;     C5 - C16  - H8       CT -   CT - HC  
    12     23     43      1 ;    1.0980e+02    3.9162e+02 ;     C5 - C16  - H9       CT -   CT - HC  
    12     24     44      1 ;    1.0980e+02    3.9162e+02 ;     C5 - C17  - H10      CT -   CT - HC  
    12     24     45      1 ;    1.0980e+02    3.9162e+02 ;     C5 - C17  - H11      CT -   CT - HC  
    12     24     46      1 ;    1.0980e+02    3.9162e+02 ;     C5 - C17  - H12      CT -   CT - HC  
    12     25     47      1 ;    1.0980e+02    3.9162e+02 ;     C5 - C18  - H13      CT -   CT - HC  
    12     25     48      1 ;    1.0980e+02    3.9162e+02 ;     C5 - C18  - H14      CT -   CT - HC  
    12     25     49      1 ;    1.0980e+02    3.9162e+02 ;     C5 - C18  - H15      CT -   CT - HC  
    13      6     30      1 ;    1.1722e+02    5.8911e+02 ;     C6 - N1   - C23      CA -    x - CA  
    13      9     19      1 ;    1.1838e+02    5.7656e+02 ;     C6 - C2   - C12      CA -    x - CA  
    13     11     14      1 ;    1.2002e+02    5.7572e+02 ;     C6 - C4   - C7       CA -   CA - CA  
    13     11     16      1 ;    1.2002e+02    5.7572e+02 ;     C6 - C4   - C9       CA -   CA - CA  
    14     11     16      1 ;    1.2002e+02    5.7572e+02 ;     C7 - C4   - C9       CA -   CA - CA  
    14     17     21      1 ;    1.1207e+02    5.4559e+02 ;     C7 - C10  - C14      CA -   CT - CT  
    14     17     35      1 ;    1.1047e+02    3.9581e+02 ;     C7 - C10  - H1       CA -   CT - HC  
    14     17     36      1 ;    1.1047e+02    3.9581e+02 ;     C7 - C10  - H2       CA -   CT - HC  
    14     26     30      1 ;    1.2002e+02    5.7572e+02 ;     C7 - C19  - C23      CA -   CA - CA  
    14     26     50      1 ;    1.1988e+02    4.0752e+02 ;     C7 - C19  - H16      CA -   CA - HA  
    15     20     31      1 ;    1.2002e+02    5.7572e+02 ;     C8 - C13  - C24      CA -   CA - CA  
    15     27     32      1 ;    1.2002e+02    5.7572e+02 ;     C8 - C20  - C25      CA -   CA - CA  
    15     27     51      1 ;    1.1988e+02    4.0752e+02 ;     C8 - C20  - H17      CA -   CA - HA  
    16      2     21      1 ;    1.1796e+02    5.5312e+02 ;     C9 - O1   - C14      CA -    x - CT  
    16     22     19      1 ;    1.2002e+02    5.7572e+02 ;     C9 - C15  - C12      CA -   CA - CA  
    16     22     40      1 ;    1.1988e+02    4.0752e+02 ;     C9 - C15  - H6       CA -   CA - HA  
    17     14     26      1 ;    1.2077e+02    5.4894e+02 ;    C10 - C7   - C19      CT -   CA - CA  
    17     21     38      1 ;    1.0956e+02    3.9246e+02 ;    C10 - C14  - H4       CT -   CT - HC  
    17     21     39      1 ;    1.0956e+02    3.9246e+02 ;    C10 - C14  - H5       CT -   CT - HC  
    18      5     20      1 ;    1.1722e+02    5.8911e+02 ;    C11 - N    - C13      CA -    x - CA  
    18     29     52      1 ;    1.1047e+02    3.9581e+02 ;    C11 - C22  - H18      CA -   CT - HC  
    18     29     53      1 ;    1.1047e+02    3.9581e+02 ;    C11 - C22  - H19      CA -   CT - HC  
    18     29     54      1 ;    1.1047e+02    3.9581e+02 ;    C11 - C22  - H20      CA -   CT - HC  
    19     22     40      1 ;    1.1988e+02    4.0752e+02 ;    C12 - C15  - H6       CA -   CA - HA  
    20     15     27      1 ;    1.2002e+02    5.7572e+02 ;    C13 - C8   - C20      CA -   CA - CA  
    20     31     33      1 ;    1.2002e+02    5.7572e+02 ;    C13 - C24  - C26      CA -   CA - CA  
    20     31     56      1 ;    1.1988e+02    4.0752e+02 ;    C13 - C24  - H22      CA -   CA - HA  
    21     17     35      1 ;    1.0980e+02    3.9162e+02 ;    C14 - C10  - H1       CT -   CT - HC  
    21     17     36      1 ;    1.0980e+02    3.9162e+02 ;    C14 - C10  - H2       CT -   CT - HC  
    22     19     37      1 ;    1.1988e+02    4.0752e+02 ;    C15 - C12  - H3       CA -   CA - HA  
    23     12     24      1 ;    1.1151e+02    5.4308e+02 ;    C16 - C5   - C17      CT -   CT - CT  
    23     12     25      1 ;    1.1151e+02    5.4308e+02 ;    C16 - C5   - C18      CT -   CT - CT  
    24     12     25      1 ;    1.1151e+02    5.4308e+02 ;    C17 - C5   - C18      CT -   CT - CT  
    26     30     55      1 ;    1.2034e+02    4.0668e+02 ;    C19 - C23  - H21      CA -   CA - HA  
    27     32     33      1 ;    1.2002e+02    5.7572e+02 ;    C20 - C25  - C26      CA -   CA - CA  
    27     32     57      1 ;    1.1988e+02    4.0752e+02 ;    C20 - C25  - H23      CA -   CA - HA  
    28      3     59      1 ;    1.0655e+02    4.3179e+02 ;    C21 - O2   - H25       C -   OH - HO  
    28     10     34      1 ;    1.0822e+02    3.9748e+02 ;    C21 - C3   - H         C -   CT - HC  
    30     26     50      1 ;    1.1988e+02    4.0752e+02 ;    C23 - C19  - H16      CA -   CA - HA  
    31     33     32      1 ;    1.2002e+02    5.7572e+02 ;    C24 - C26  - C25      CA -   CA - CA  
    31     33     58      1 ;    1.1988e+02    4.0752e+02 ;    C24 - C26  - H24      CA -   CA - HA  
    32     27     51      1 ;    1.1988e+02    4.0752e+02 ;    C25 - C20  - H17      CA -   CA - HA  
    32     33     58      1 ;    1.1988e+02    4.0752e+02 ;    C25 - C26  - H24      CA -   CA - HA  
    33     31     56      1 ;    1.1988e+02    4.0752e+02 ;    C26 - C24  - H22      CA -   CA - HA  
    33     32     57      1 ;    1.1988e+02    4.0752e+02 ;    C26 - C25  - H23      CA -   CA - HA  
    35     17     36      1 ;    1.0758e+02    3.2635e+02 ;     H1 - C10  - H2       HC -   CT - HC  
    38     21     39      1 ;    1.0846e+02    3.2468e+02 ;     H4 - C14  - H5       HC -   CT - HC  
    41     23     42      1 ;    1.0758e+02    3.2635e+02 ;     H7 - C16  - H8       HC -   CT - HC  
    41     23     43      1 ;    1.0758e+02    3.2635e+02 ;     H7 - C16  - H9       HC -   CT - HC  
    42     23     43      1 ;    1.0758e+02    3.2635e+02 ;     H8 - C16  - H9       HC -   CT - HC  
    44     24     45      1 ;    1.0758e+02    3.2635e+02 ;    H10 - C17  - H11      HC -   CT - HC  
    44     24     46      1 ;    1.0758e+02    3.2635e+02 ;    H10 - C17  - H12      HC -   CT - HC  
    45     24     46      1 ;    1.0758e+02    3.2635e+02 ;    H11 - C17  - H12      HC -   CT - HC  
    47     25     48      1 ;    1.0758e+02    3.2635e+02 ;    H13 - C18  - H14      HC -   CT - HC  
    47     25     49      1 ;    1.0758e+02    3.2635e+02 ;    H13 - C18  - H15      HC -   CT - HC  
    48     25     49      1 ;    1.0758e+02    3.2635e+02 ;    H14 - C18  - H15      HC -   CT - HC  
    52     29     53      1 ;    1.0758e+02    3.2635e+02 ;    H18 - C22  - H19      HC -   CT - HC  
    52     29     54      1 ;    1.0758e+02    3.2635e+02 ;    H18 - C22  - H20      HC -   CT - HC  
    53     29     54      1 ;    1.0758e+02    3.2635e+02 ;    H19 - C22  - H20      HC -   CT - HC  

[ dihedrals ] ; propers
; for gromacs 4.5 or higher, using funct 9
;    i      j      k      l   func   phase     kd      pn
     1     10      8      7      9 ;     0.00   0.00000   0 ;      O-    C3-    C1-     C
     1     10      8     18      9 ;     0.00   0.00000   0 ;      O-    C3-    C1-   C11
     1     10     28      3      9 ;   180.00   0.00000   2 ;      O-    C3-   C21-    O2
     1     10     28      4      9 ;     0.00   0.33472   1 ;      O-    C3-   C21-    O3
     1     10     28      4      9 ;   180.00   2.63592   2 ;      O-    C3-   C21-    O3
     1     10     28      4      9 ;   180.00   4.18400   3 ;      O-    C3-   C21-    O3
     1     12     23     41      9 ;     0.00   0.00000   0 ;      O-    C5-   C16-    H7
     1     12     23     41      9 ;     0.00   1.04600   1 ;      O-    C5-   C16-    H7
     1     12     23     42      9 ;     0.00   0.00000   0 ;      O-    C5-   C16-    H8
     1     12     23     42      9 ;     0.00   1.04600   1 ;      O-    C5-   C16-    H8
     1     12     23     43      9 ;     0.00   0.00000   0 ;      O-    C5-   C16-    H9
     1     12     23     43      9 ;     0.00   1.04600   1 ;      O-    C5-   C16-    H9
     1     12     24     44      9 ;     0.00   0.00000   0 ;      O-    C5-   C17-   H10
     1     12     24     44      9 ;     0.00   1.04600   1 ;      O-    C5-   C17-   H10
     1     12     24     45      9 ;     0.00   0.00000   0 ;      O-    C5-   C17-   H11
     1     12     24     45      9 ;     0.00   1.04600   1 ;      O-    C5-   C17-   H11
     1     12     24     46      9 ;     0.00   0.00000   0 ;      O-    C5-   C17-   H12
     1     12     24     46      9 ;     0.00   1.04600   1 ;      O-    C5-   C17-   H12
     1     12     25     47      9 ;     0.00   0.00000   0 ;      O-    C5-   C18-   H13
     1     12     25     47      9 ;     0.00   1.04600   1 ;      O-    C5-   C18-   H13
     1     12     25     48      9 ;     0.00   0.00000   0 ;      O-    C5-   C18-   H14
     1     12     25     48      9 ;     0.00   1.04600   1 ;      O-    C5-   C18-   H14
     1     12     25     49      9 ;     0.00   0.00000   0 ;      O-    C5-   C18-   H15
     1     12     25     49      9 ;     0.00   1.04600   1 ;      O-    C5-   C18-   H15
     2     16     11     13      9 ;   180.00  15.16700   2 ;     O1-    C9-    C4-    C6
     2     16     11     14      9 ;   180.00  15.16700   2 ;     O1-    C9-    C4-    C7
     2     16     22     19      9 ;   180.00  15.16700   2 ;     O1-    C9-   C15-   C12
     2     16     22     40      9 ;   180.00  15.16700   2 ;     O1-    C9-   C15-    H6
     2     21     17     14      9 ;     0.00   0.65084   3 ;     O1-   C14-   C10-    C7
     2     21     17     35      9 ;     0.00   0.00000   0 ;     O1-   C14-   C10-    H1
     2     21     17     35      9 ;     0.00   1.04600   1 ;     O1-   C14-   C10-    H1
     2     21     17     36      9 ;     0.00   0.00000   0 ;     O1-   C14-   C10-    H2
     2     21     17     36      9 ;     0.00   1.04600   1 ;     O1-   C14-   C10-    H2
     3     28     10      8      9 ;   180.00   0.00000   2 ;     O2-   C21-    C3-    C1
     3     28     10     34      9 ;   180.00   0.00000   2 ;     O2-   C21-    C3-     H
     4     28      3     59      9 ;     0.00   7.94960   1 ;     O3-   C21-    O2-   H25
     4     28      3     59      9 ;   180.00   9.62320   2 ;     O3-   C21-    O2-   H25
     4     28     10      8      9 ;   180.00   0.00000   2 ;     O3-   C21-    C3-    C1
     4     28     10     34      9 ;     0.00   3.34720   1 ;     O3-   C21-    C3-     H
     4     28     10     34      9 ;   180.00   0.33472   3 ;     O3-   C21-    C3-     H
     5     18      8      7      9 ;   180.00  15.16700   2 ;      N-   C11-    C1-     C
     5     18      8     10      9 ;   180.00  15.16700   2 ;      N-   C11-    C1-    C3
     5     18     29     52      9 ;     0.00   0.00000   0 ;      N-   C11-   C22-   H18
     5     18     29     53      9 ;     0.00   0.00000   0 ;      N-   C11-   C22-   H19
     5     18     29     54      9 ;     0.00   0.00000   0 ;      N-   C11-   C22-   H20
     5     20     15      7      9 ;   180.00  15.16700   2 ;      N-   C13-    C8-     C
     5     20     15     27      9 ;   180.00  15.16700   2 ;      N-   C13-    C8-   C20
     5     20     31     33      9 ;   180.00  15.16700   2 ;      N-   C13-   C24-   C26
     5     20     31     56      9 ;   180.00  15.16700   2 ;      N-   C13-   C24-   H22
     6     13      9      7      9 ;   180.00  15.16700   2 ;     N1-    C6-    C2-     C
     6     13      9     19      9 ;   180.00  15.16700   2 ;     N1-    C6-    C2-   C12
     6     13     11     14      9 ;   180.00  15.16700   2 ;     N1-    C6-    C4-    C7
     6     13     11     16      9 ;   180.00  15.16700   2 ;     N1-    C6-    C4-    C9
     6     30     26     14      9 ;   180.00  15.16700   2 ;     N1-   C23-   C19-    C7
     6     30     26     50      9 ;   180.00  15.16700   2 ;     N1-   C23-   C19-   H16
     7      8     10     28      9 ;     0.00   0.00000   0 ;      C-    C1-    C3-   C21
     7      8     10     34      9 ;     0.00   0.00000   0 ;      C-    C1-    C3-     H
     7      8     18     29      9 ;   180.00  15.16700   2 ;      C-    C1-   C11-   C22
     7      9     13     11      9 ;   180.00  15.16700   2 ;      C-    C2-    C6-    C4
     7      9     19     22      9 ;   180.00  15.16700   2 ;      C-    C2-   C12-   C15
     7      9     19     37      9 ;   180.00  15.16700   2 ;      C-    C2-   C12-    H3
     7     15     20     31      9 ;   180.00  15.16700   2 ;      C-    C8-   C13-   C24
     7     15     27     32      9 ;   180.00  15.16700   2 ;      C-    C8-   C20-   C25
     7     15     27     51      9 ;   180.00  15.16700   2 ;      C-    C8-   C20-   H17
     8      7      9     13      9 ;   180.00   3.32628   2 ;     C1-     C-    C2-    C6
     8      7      9     19      9 ;   180.00   3.32628   2 ;     C1-     C-    C2-   C12
     8      7     15     20      9 ;   180.00  15.16700   2 ;     C1-     C-    C8-   C13
     8      7     15     27      9 ;   180.00  15.16700   2 ;     C1-     C-    C8-   C20
     8     18      5     20      9 ;   180.00  20.08320   2 ;     C1-   C11-     N-   C13
     8     18     29     52      9 ;   180.00   0.00000   2 ;     C1-   C11-   C22-   H18
     8     18     29     53      9 ;   180.00   0.00000   2 ;     C1-   C11-   C22-   H19
     8     18     29     54      9 ;   180.00   0.00000   2 ;     C1-   C11-   C22-   H20
     9      7      8     10      9 ;   180.00  15.16700   2 ;     C2-     C-    C1-    C3
     9      7      8     18      9 ;   180.00  15.16700   2 ;     C2-     C-    C1-   C11
     9      7     15     20      9 ;   180.00  15.16700   2 ;     C2-     C-    C8-   C13
     9      7     15     27      9 ;   180.00  15.16700   2 ;     C2-     C-    C8-   C20
     9     13      6     30      9 ;   180.00  20.08320   2 ;     C2-    C6-    N1-   C23
     9     13     11     14      9 ;   180.00  15.16700   2 ;     C2-    C6-    C4-    C7
     9     13     11     16      9 ;   180.00  15.16700   2 ;     C2-    C6-    C4-    C9
     9     19     22     16      9 ;   180.00  15.16700   2 ;     C2-   C12-   C15-    C9
     9     19     22     40      9 ;   180.00  15.16700   2 ;     C2-   C12-   C15-    H6
    10      1     12     23      9 ;     0.00   0.00000   0 ;     C3-     O-    C5-   C16
    10      1     12     23      9 ;     0.00   0.66944   2 ;     C3-     O-    C5-   C16
    10      1     12     23      9 ;     0.00   1.00416   3 ;     C3-     O-    C5-   C16
    10      1     12     24      9 ;     0.00   0.00000   0 ;     C3-     O-    C5-   C17
    10      1     12     24      9 ;     0.00   0.66944   2 ;     C3-     O-    C5-   C17
    10      1     12     24      9 ;     0.00   1.00416   3 ;     C3-     O-    C5-   C17
    10      1     12     25      9 ;     0.00   0.00000   0 ;     C3-     O-    C5-   C18
    10      1     12     25      9 ;     0.00   0.66944   2 ;     C3-     O-    C5-   C18
    10      1     12     25      9 ;     0.00   1.00416   3 ;     C3-     O-    C5-   C18
    10      8      7     15      9 ;   180.00  15.16700   2 ;     C3-    C1-     C-    C8
    10      8     18     29      9 ;   180.00  15.16700   2 ;     C3-    C1-   C11-   C22
    10     28      3     59      9 ;   180.00   7.44752   2 ;     C3-   C21-    O2-   H25
    11     13      6     30      9 ;   180.00  20.08320   2 ;     C4-    C6-    N1-   C23
    11     13      9     19      9 ;   180.00  15.16700   2 ;     C4-    C6-    C2-   C12
    11     14     17     21      9 ;   180.00   1.02508   2 ;     C4-    C7-   C10-   C14
    11     14     17     35      9 ;   180.00   0.00000   2 ;     C4-    C7-   C10-    H1
    11     14     17     36      9 ;   180.00   0.00000   2 ;     C4-    C7-   C10-    H2
    11     14     26     30      9 ;   180.00  15.16700   2 ;     C4-    C7-   C19-   C23
    11     14     26     50      9 ;   180.00  15.16700   2 ;     C4-    C7-   C19-   H16
    11     16      2     21      9 ;   180.00   6.73624   2 ;     C4-    C9-    O1-   C14
    11     16     22     19      9 ;   180.00  15.16700   2 ;     C4-    C9-   C15-   C12
    11     16     22     40      9 ;   180.00  15.16700   2 ;     C4-    C9-   C15-    H6
    12      1     10      8      9 ;     0.00   1.60387   3 ;     C5-     O-    C3-    C1
    12      1     10     28      9 ;     0.00   1.60387   3 ;     C5-     O-    C3-   C21
    12      1     10     34      9 ;     0.00   1.41001   3 ;     C5-     O-    C3-     H
    13      6     30     26      9 ;   180.00  20.08320   2 ;     C6-    N1-   C23-   C19
    13      6     30     55      9 ;   180.00  20.08320   2 ;     C6-    N1-   C23-   H21
    13      9      7     15      9 ;   180.00   3.32628   2 ;     C6-    C2-     C-    C8
    13      9     19     22      9 ;   180.00  15.16700   2 ;     C6-    C2-   C12-   C15
    13      9     19     37      9 ;   180.00  15.16700   2 ;     C6-    C2-   C12-    H3
    13     11     14     17      9 ;   180.00  15.16700   2 ;     C6-    C4-    C7-   C10
    13     11     14     26      9 ;   180.00  15.16700   2 ;     C6-    C4-    C7-   C19
    13     11     16     22      9 ;   180.00  15.16700   2 ;     C6-    C4-    C9-   C15
    14     11     16     22      9 ;   180.00  15.16700   2 ;     C7-    C4-    C9-   C15
    14     17     21     38      9 ;     0.00   0.65084   3 ;     C7-   C10-   C14-    H4
    14     17     21     39      9 ;     0.00   0.65084   3 ;     C7-   C10-   C14-    H5
    14     26     30     55      9 ;   180.00  15.16700   2 ;     C7-   C19-   C23-   H21
    15      7      8     18      9 ;   180.00  15.16700   2 ;     C8-     C-    C1-   C11
    15      7      9     19      9 ;   180.00   3.32628   2 ;     C8-     C-    C2-   C12
    15     20      5     18      9 ;   180.00  20.08320   2 ;     C8-   C13-     N-   C11
    15     20     31     33      9 ;   180.00  15.16700   2 ;     C8-   C13-   C24-   C26
    15     20     31     56      9 ;   180.00  15.16700   2 ;     C8-   C13-   C24-   H22
    15     27     32     33      9 ;   180.00  15.16700   2 ;     C8-   C20-   C25-   C26
    15     27     32     57      9 ;   180.00  15.16700   2 ;     C8-   C20-   C25-   H23
    16      2     21     17      9 ;     0.00   1.60387   3 ;     C9-    O1-   C14-   C10
    16      2     21     38      9 ;     0.00   1.60387   3 ;     C9-    O1-   C14-    H4
    16      2     21     39      9 ;     0.00   1.60387   3 ;     C9-    O1-   C14-    H5
    16     11     14     17      9 ;   180.00  15.16700   2 ;     C9-    C4-    C7-   C10
    16     11     14     26      9 ;   180.00  15.16700   2 ;     C9-    C4-    C7-   C19
    16     22     19     37      9 ;   180.00  15.16700   2 ;     C9-   C15-   C12-    H3
    17     14     26     30      9 ;   180.00  15.16700   2 ;    C10-    C7-   C19-   C23
    17     14     26     50      9 ;   180.00  15.16700   2 ;    C10-    C7-   C19-   H16
    18      5     20     31      9 ;   180.00  20.08320   2 ;    C11-     N-   C13-   C24
    18      8     10     28      9 ;     0.00   0.00000   0 ;    C11-    C1-    C3-   C21
    18      8     10     34      9 ;     0.00   0.00000   0 ;    C11-    C1-    C3-     H
    20      5     18     29      9 ;   180.00  20.08320   2 ;    C13-     N-   C11-   C22
    20     15     27     32      9 ;   180.00  15.16700   2 ;    C13-    C8-   C20-   C25
    20     15     27     51      9 ;   180.00  15.16700   2 ;    C13-    C8-   C20-   H17
    20     31     33     32      9 ;   180.00  15.16700   2 ;    C13-   C24-   C26-   C25
    20     31     33     58      9 ;   180.00  15.16700   2 ;    C13-   C24-   C26-   H24
    21      2     16     22      9 ;   180.00   6.73624   2 ;    C14-    O1-    C9-   C15
    21     17     14     26      9 ;   180.00   1.02508   2 ;    C14-   C10-    C7-   C19
    23     12     24     44      9 ;     0.00   0.33472   3 ;    C16-    C5-   C17-   H10
    23     12     24     45      9 ;     0.00   0.33472   3 ;    C16-    C5-   C17-   H11
    23     12     24     46      9 ;     0.00   0.33472   3 ;    C16-    C5-   C17-   H12
    23     12     25     47      9 ;     0.00   0.33472   3 ;    C16-    C5-   C18-   H13
    23     12     25     48      9 ;     0.00   0.33472   3 ;    C16-    C5-   C18-   H14
    23     12     25     49      9 ;     0.00   0.33472   3 ;    C16-    C5-   C18-   H15
    24     12     23     41      9 ;     0.00   0.33472   3 ;    C17-    C5-   C16-    H7
    24     12     23     42      9 ;     0.00   0.33472   3 ;    C17-    C5-   C16-    H8
    24     12     23     43      9 ;     0.00   0.33472   3 ;    C17-    C5-   C16-    H9
    24     12     25     47      9 ;     0.00   0.33472   3 ;    C17-    C5-   C18-   H13
    24     12     25     48      9 ;     0.00   0.33472   3 ;    C17-    C5-   C18-   H14
    24     12     25     49      9 ;     0.00   0.33472   3 ;    C17-    C5-   C18-   H15
    25     12     23     41      9 ;     0.00   0.33472   3 ;    C18-    C5-   C16-    H7
    25     12     23     42      9 ;     0.00   0.33472   3 ;    C18-    C5-   C16-    H8
    25     12     23     43      9 ;     0.00   0.33472   3 ;    C18-    C5-   C16-    H9
    25     12     24     44      9 ;     0.00   0.33472   3 ;    C18-    C5-   C17-   H10
    25     12     24     45      9 ;     0.00   0.33472   3 ;    C18-    C5-   C17-   H11
    25     12     24     46      9 ;     0.00   0.33472   3 ;    C18-    C5-   C17-   H12
    26     14     17     35      9 ;   180.00   0.00000   2 ;    C19-    C7-   C10-    H1
    26     14     17     36      9 ;   180.00   0.00000   2 ;    C19-    C7-   C10-    H2
    27     15     20     31      9 ;   180.00  15.16700   2 ;    C20-    C8-   C13-   C24
    27     32     33     31      9 ;   180.00  15.16700   2 ;    C20-   C25-   C26-   C24
    27     32     33     58      9 ;   180.00  15.16700   2 ;    C20-   C25-   C26-   H24
    31     33     32     57      9 ;   180.00  15.16700   2 ;    C24-   C26-   C25-   H23
    32     33     31     56      9 ;   180.00  15.16700   2 ;    C25-   C26-   C24-   H22
    33     32     27     51      9 ;   180.00  15.16700   2 ;    C26-   C25-   C20-   H17
    35     17     21     38      9 ;     0.00   0.65084   3 ;     H1-   C10-   C14-    H4
    35     17     21     39      9 ;     0.00   0.65084   3 ;     H1-   C10-   C14-    H5
    36     17     21     38      9 ;     0.00   0.65084   3 ;     H2-   C10-   C14-    H4
    36     17     21     39      9 ;     0.00   0.65084   3 ;     H2-   C10-   C14-    H5
    37     19     22     40      9 ;   180.00  15.16700   2 ;     H3-   C12-   C15-    H6
    50     26     30     55      9 ;   180.00  15.16700   2 ;    H16-   C19-   C23-   H21
    51     27     32     57      9 ;   180.00  15.16700   2 ;    H17-   C20-   C25-   H23
    56     31     33     58      9 ;   180.00  15.16700   2 ;    H22-   C24-   C26-   H24
    57     32     33     58      9 ;   180.00  15.16700   2 ;    H23-   C25-   C26-   H24

[ dihedrals ] ; impropers
; treated as propers in GROMACS to use correct AMBER analytical function
;    i      j      k      l   func   phase     kd      pn
     8     15      7      9      4 ;   180.00   4.60240   2 ;     C1-    C8-     C-    C2
    10      4     28      3      4 ;   180.00   4.60240   2 ;     C3-    O3-   C21-    O2
    10     18      8      7      4 ;   180.00   4.60240   2 ;     C3-   C11-    C1-     C
    11      9     13      6      4 ;   180.00   4.60240   2 ;     C4-    C2-    C6-    N1
    11     22     16      2      4 ;   180.00   4.60240   2 ;     C4-   C15-    C9-    O1
    11     26     14     17      4 ;   180.00   4.60240   2 ;     C4-   C19-    C7-   C10
    13     14     11     16      4 ;   180.00   4.60240   2 ;     C6-    C7-    C4-    C9
    13     19      9      7      4 ;   180.00   4.60240   2 ;     C6-   C12-    C2-     C
    14     30     26     50      4 ;   180.00   4.60240   2 ;     C7-   C23-   C19-   H16
    15     31     20      5      4 ;   180.00   4.60240   2 ;     C8-   C24-   C13-     N
    15     32     27     51      4 ;   180.00   4.60240   2 ;     C8-   C25-   C20-   H17
    16     19     22     40      4 ;   180.00   4.60240   2 ;     C9-   C12-   C15-    H6
    20     27     15      7      4 ;   180.00   4.60240   2 ;    C13-   C20-    C8-     C
    20     33     31     56      4 ;   180.00   4.60240   2 ;    C13-   C26-   C24-   H22
    22      9     19     37      4 ;   180.00   4.60240   2 ;    C15-    C2-   C12-    H3
    26     55     30      6      4 ;   180.00   4.60240   2 ;    C19-   H21-   C23-    N1
    27     33     32     57      4 ;   180.00   4.60240   2 ;    C20-   C26-   C25-   H23
    29      8     18      5      4 ;   180.00   4.60240   2 ;    C22-    C1-   C11-     N
    31     32     33     58      4 ;   180.00   4.60240   2 ;    C24-   C25-   C26-   H24