; ligand.pdb.mol2_GMX.itp created by acpype (v: 2022.7.21) on Tue Mar 24 12:36:21 2026

[ atomtypes ]
;name   bond_type     mass     charge   ptype   sigma         epsilon       Amb
 os       os          0.00000  0.00000   A     3.15610e-01   3.03758e-01 ; 1.77  0.0726
 oh       oh          0.00000  0.00000   A     3.24287e-01   3.89112e-01 ; 1.82  0.0930
 o        o           0.00000  0.00000   A     3.04812e-01   6.12119e-01 ; 1.71  0.1463
 nb       nb          0.00000  0.00000   A     3.38417e-01   3.93714e-01 ; 1.90  0.0941
 cp       cp          0.00000  0.00000   A     3.31521e-01   4.13379e-01 ; 1.86  0.0988
 ca       ca          0.00000  0.00000   A     3.31521e-01   4.13379e-01 ; 1.86  0.0988
 c3       c3          0.00000  0.00000   A     3.39771e-01   4.51035e-01 ; 1.91  0.1078
 c        c           0.00000  0.00000   A     3.31521e-01   4.13379e-01 ; 1.86  0.0988
 h1       h1          0.00000  0.00000   A     2.42200e-01   8.70272e-02 ; 1.36  0.0208
 hc       hc          0.00000  0.00000   A     2.60018e-01   8.70272e-02 ; 1.46  0.0208
 ha       ha          0.00000  0.00000   A     2.62548e-01   6.73624e-02 ; 1.47  0.0161
 h4       h4          0.00000  0.00000   A     2.53639e-01   6.73624e-02 ; 1.42  0.0161
 ho       ho          0.00000  0.00000   A     5.37925e-02   1.96648e-02 ; 0.30  0.0047

[ moleculetype ]
;name            nrexcl
 ligand.pdb.mol2  3

[ atoms ]
;   nr  type  resi  res  atom  cgnr     charge      mass       ; qtot   bond_type
     1   os     1   UNK     O    1    -0.395600     16.00000 ; qtot -0.396
     2   os     1   UNK    O1    2    -0.322900     16.00000 ; qtot -0.718
     3   oh     1   UNK    O2    3    -0.616100     16.00000 ; qtot -1.335
     4    o     1   UNK    O3    4    -0.530000     16.00000 ; qtot -1.865
     5   nb     1   UNK     N    5    -0.670997     14.01000 ; qtot -2.536
     6   nb     1   UNK    N1    6    -0.659000     14.01000 ; qtot -3.195
     7   cp     1   UNK     C    7     0.084000     12.01000 ; qtot -3.111
     8   ca     1   UNK    C1    8    -0.203600     12.01000 ; qtot -3.314
     9   cp     1   UNK    C2    9    -0.130300     12.01000 ; qtot -3.444
    10   c3     1   UNK    C3   10     0.167400     12.01000 ; qtot -3.277
    11   ca     1   UNK    C4   11    -0.194300     12.01000 ; qtot -3.471
    12   c3     1   UNK    C5   12     0.147800     12.01000 ; qtot -3.324
    13   ca     1   UNK    C6   13     0.447600     12.01000 ; qtot -2.876
    14   ca     1   UNK    C7   14    -0.017300     12.01000 ; qtot -2.893
    15   ca     1   UNK    C8   15    -0.141300     12.01000 ; qtot -3.035
    16   ca     1   UNK    C9   16     0.147100     12.01000 ; qtot -2.887
    17   c3     1   UNK   C10   17    -0.077100     12.01000 ; qtot -2.965
    18   ca     1   UNK   C11   18     0.450600     12.01000 ; qtot -2.514
    19   ca     1   UNK   C12   19    -0.043000     12.01000 ; qtot -2.557
    20   ca     1   UNK   C13   20     0.409600     12.01000 ; qtot -2.147
    21   c3     1   UNK   C14   21     0.130400     12.01000 ; qtot -2.017
    22   ca     1   UNK   C15   22    -0.169000     12.01000 ; qtot -2.186
    23   c3     1   UNK   C16   23    -0.112767     12.01000 ; qtot -2.299
    24   c3     1   UNK   C17   24    -0.112767     12.01000 ; qtot -2.412
    25   c3     1   UNK   C18   25    -0.112767     12.01000 ; qtot -2.524
    26   ca     1   UNK   C19   26    -0.255300     12.01000 ; qtot -2.780
    27   ca     1   UNK   C20   27    -0.095000     12.01000 ; qtot -2.875
    28    c     1   UNK   C21   28     0.618100     12.01000 ; qtot -2.256
    29   c3     1   UNK   C22   29    -0.164400     12.01000 ; qtot -2.421
    30   ca     1   UNK   C23   30     0.427200     12.01000 ; qtot -1.994
    31   ca     1   UNK   C24   31    -0.173300     12.01000 ; qtot -2.167
    32   ca     1   UNK   C25   32    -0.137000     12.01000 ; qtot -2.304
    33   ca     1   UNK   C26   33    -0.119000     12.01000 ; qtot -2.423
    34   h1     1   UNK     H   34     0.081700      1.00800 ; qtot -2.341
    35   hc     1   UNK    H1   35     0.071200      1.00800 ; qtot -2.270
    36   hc     1   UNK    H2   36     0.071200      1.00800 ; qtot -2.199
    37   ha     1   UNK    H3   37     0.148000      1.00800 ; qtot -2.051
    38   h1     1   UNK    H4   38     0.060700      1.00800 ; qtot -1.990
    39   h1     1   UNK    H5   39     0.060700      1.00800 ; qtot -1.929
    40   ha     1   UNK    H6   40     0.151000      1.00800 ; qtot -1.778
    41   hc     1   UNK    H7   41     0.048033      1.00800 ; qtot -1.730
    42   hc     1   UNK    H8   42     0.048033      1.00800 ; qtot -1.682
    43   hc     1   UNK    H9   43     0.048033      1.00800 ; qtot -1.634
    44   hc     1   UNK   H10   44     0.048033      1.00800 ; qtot -1.586
    45   hc     1   UNK   H11   45     0.048033      1.00800 ; qtot -1.538
    46   hc     1   UNK   H12   46     0.048033      1.00800 ; qtot -1.490
    47   hc     1   UNK   H13   47     0.048033      1.00800 ; qtot -1.442
    48   hc     1   UNK   H14   48     0.048033      1.00800 ; qtot -1.394
    49   hc     1   UNK   H15   49     0.048033      1.00800 ; qtot -1.346
    50   ha     1   UNK   H16   50     0.144000      1.00800 ; qtot -1.202
    51   ha     1   UNK   H17   51     0.141000      1.00800 ; qtot -1.061
    52   hc     1   UNK   H18   52     0.060367      1.00800 ; qtot -1.001
    53   hc     1   UNK   H19   53     0.060367      1.00800 ; qtot -0.940
    54   hc     1   UNK   H20   54     0.060367      1.00800 ; qtot -0.880
    55   h4     1   UNK   H21   55     0.022100      1.00800 ; qtot -0.858
    56   ha     1   UNK   H22   56     0.149000      1.00800 ; qtot -0.709
    57   ha     1   UNK   H23   57     0.133000      1.00800 ; qtot -0.576
    58   ha     1   UNK   H24   58     0.133000      1.00800 ; qtot -0.443
    59   ho     1   UNK   H25   59     0.443000      1.00800 ; qtot 0.000

[ bonds ]
;   ai     aj funct   r             k
     1     10   1    1.4320e-01    2.3832e+05 ;      O - C3    
     1     12   1    1.4320e-01    2.3832e+05 ;      O - C5    
     2     16   1    1.3700e-01    2.9916e+05 ;     O1 - C9    
     2     21   1    1.4320e-01    2.3832e+05 ;     O1 - C14   
     3     28   1    1.3510e-01    3.2058e+05 ;     O2 - C21   
     3     59   1    9.7300e-02    4.7154e+05 ;     O2 - H25   
     4     28   1    1.2180e-01    5.4610e+05 ;     O3 - C21   
     5     18   1    1.3390e-01    3.4660e+05 ;      N - C11   
     5     20   1    1.3390e-01    3.4660e+05 ;      N - C13   
     6     13   1    1.3390e-01    3.4660e+05 ;     N1 - C6    
     6     30   1    1.3390e-01    3.4660e+05 ;     N1 - C23   
     7      8   1    1.4060e-01    3.0828e+05 ;      C - C1    
     7      9   1    1.4850e-01    2.3230e+05 ;      C - C2    
     7     15   1    1.4060e-01    3.0828e+05 ;      C - C8    
     8     10   1    1.5160e-01    2.0945e+05 ;     C1 - C3    
     8     18   1    1.3980e-01    3.1681e+05 ;     C1 - C11   
     9     13   1    1.4060e-01    3.0828e+05 ;     C2 - C6    
     9     19   1    1.4060e-01    3.0828e+05 ;     C2 - C12   
    10     28   1    1.5240e-01    2.0351e+05 ;     C3 - C21   
    10     34   1    1.0970e-01    3.1455e+05 ;     C3 - H     
    11     13   1    1.3980e-01    3.1681e+05 ;     C4 - C6    
    11     14   1    1.3980e-01    3.1681e+05 ;     C4 - C7    
    11     16   1    1.3980e-01    3.1681e+05 ;     C4 - C9    
    12     23   1    1.5380e-01    1.9456e+05 ;     C5 - C16   
    12     24   1    1.5380e-01    1.9456e+05 ;     C5 - C17   
    12     25   1    1.5380e-01    1.9456e+05 ;     C5 - C18   
    14     17   1    1.5160e-01    2.0945e+05 ;     C7 - C10   
    14     26   1    1.3980e-01    3.1681e+05 ;     C7 - C19   
    15     20   1    1.3980e-01    3.1681e+05 ;     C8 - C13   
    15     27   1    1.3980e-01    3.1681e+05 ;     C8 - C20   
    16     22   1    1.3980e-01    3.1681e+05 ;     C9 - C15   
    17     21   1    1.5380e-01    1.9456e+05 ;    C10 - C14   
    17     35   1    1.0970e-01    3.1455e+05 ;    C10 - H1    
    17     36   1    1.0970e-01    3.1455e+05 ;    C10 - H2    
    18     29   1    1.5160e-01    2.0945e+05 ;    C11 - C22   
    19     22   1    1.3980e-01    3.1681e+05 ;    C12 - C15   
    19     37   1    1.0860e-01    3.3112e+05 ;    C12 - H3    
    20     31   1    1.3980e-01    3.1681e+05 ;    C13 - C24   
    21     38   1    1.0970e-01    3.1455e+05 ;    C14 - H4    
    21     39   1    1.0970e-01    3.1455e+05 ;    C14 - H5    
    22     40   1    1.0860e-01    3.3112e+05 ;    C15 - H6    
    23     41   1    1.0970e-01    3.1455e+05 ;    C16 - H7    
    23     42   1    1.0970e-01    3.1455e+05 ;    C16 - H8    
    23     43   1    1.0970e-01    3.1455e+05 ;    C16 - H9    
    24     44   1    1.0970e-01    3.1455e+05 ;    C17 - H10   
    24     45   1    1.0970e-01    3.1455e+05 ;    C17 - H11   
    24     46   1    1.0970e-01    3.1455e+05 ;    C17 - H12   
    25     47   1    1.0970e-01    3.1455e+05 ;    C18 - H13   
    25     48   1    1.0970e-01    3.1455e+05 ;    C18 - H14   
    25     49   1    1.0970e-01    3.1455e+05 ;    C18 - H15   
    26     30   1    1.3980e-01    3.1681e+05 ;    C19 - C23   
    26     50   1    1.0860e-01    3.3112e+05 ;    C19 - H16   
    27     32   1    1.3980e-01    3.1681e+05 ;    C20 - C25   
    27     51   1    1.0860e-01    3.3112e+05 ;    C20 - H17   
    29     52   1    1.0970e-01    3.1455e+05 ;    C22 - H18   
    29     53   1    1.0970e-01    3.1455e+05 ;    C22 - H19   
    29     54   1    1.0970e-01    3.1455e+05 ;    C22 - H20   
    30     55   1    1.0890e-01    3.2644e+05 ;    C23 - H21   
    31     33   1    1.3980e-01    3.1681e+05 ;    C24 - C26   
    31     56   1    1.0860e-01    3.3112e+05 ;    C24 - H22   
    32     33   1    1.3980e-01    3.1681e+05 ;    C25 - C26   
    32     57   1    1.0860e-01    3.3112e+05 ;    C25 - H23   
    33     58   1    1.0860e-01    3.3112e+05 ;    C26 - H24   

[ pairs ]
;   ai     aj    funct
     1      3      1 ;      O - O2    
     1      4      1 ;      O - O3    
     1      7      1 ;      O - C     
     1     18      1 ;      O - C11   
     1     41      1 ;      O - H7    
     1     42      1 ;      O - H8    
     1     43      1 ;      O - H9    
     1     44      1 ;      O - H10   
     1     45      1 ;      O - H11   
     1     46      1 ;      O - H12   
     1     47      1 ;      O - H13   
     1     48      1 ;      O - H14   
     1     49      1 ;      O - H15   
     2     13      1 ;     O1 - C6    
     2     14      1 ;     O1 - C7    
     2     19      1 ;     O1 - C12   
     2     35      1 ;     O1 - H1    
     2     36      1 ;     O1 - H2    
     2     40      1 ;     O1 - H6    
     3      8      1 ;     O2 - C1    
     3     34      1 ;     O2 - H     
     4      8      1 ;     O3 - C1    
     4     34      1 ;     O3 - H     
     4     59      1 ;     O3 - H25   
     5      7      1 ;      N - C     
     5     10      1 ;      N - C3    
     5     27      1 ;      N - C20   
     5     33      1 ;      N - C26   
     5     52      1 ;      N - H18   
     5     53      1 ;      N - H19   
     5     54      1 ;      N - H20   
     5     56      1 ;      N - H22   
     6      7      1 ;     N1 - C     
     6     14      1 ;     N1 - C7    
     6     16      1 ;     N1 - C9    
     6     19      1 ;     N1 - C12   
     6     50      1 ;     N1 - H16   
     7     11      1 ;      C - C4    
     7     22      1 ;      C - C15   
     7     28      1 ;      C - C21   
     7     29      1 ;      C - C22   
     7     31      1 ;      C - C24   
     7     32      1 ;      C - C25   
     7     34      1 ;      C - H     
     7     37      1 ;      C - H3    
     7     51      1 ;      C - H17   
     8     13      1 ;     C1 - C6    
     8     19      1 ;     C1 - C12   
     8     20      1 ;     C1 - C13   
     8     27      1 ;     C1 - C20   
     8     52      1 ;     C1 - H18   
     8     53      1 ;     C1 - H19   
     8     54      1 ;     C1 - H20   
     9     10      1 ;     C2 - C3    
     9     14      1 ;     C2 - C7    
     9     16      1 ;     C2 - C9    
     9     18      1 ;     C2 - C11   
     9     20      1 ;     C2 - C13   
     9     27      1 ;     C2 - C20   
     9     30      1 ;     C2 - C23   
     9     40      1 ;     C2 - H6    
    10     15      1 ;     C3 - C8    
    10     23      1 ;     C3 - C16   
    10     24      1 ;     C3 - C17   
    10     25      1 ;     C3 - C18   
    10     29      1 ;     C3 - C22   
    10     59      1 ;     C3 - H25   
    11     19      1 ;     C4 - C12   
    11     21      1 ;     C4 - C14   
    11     30      1 ;     C4 - C23   
    11     35      1 ;     C4 - H1    
    11     36      1 ;     C4 - H2    
    11     40      1 ;     C4 - H6    
    11     50      1 ;     C4 - H16   
    12      8      1 ;     C5 - C1    
    12     28      1 ;     C5 - C21   
    12     34      1 ;     C5 - H     
    13     15      1 ;     C6 - C8    
    13     17      1 ;     C6 - C10   
    13     22      1 ;     C6 - C15   
    13     26      1 ;     C6 - C19   
    13     37      1 ;     C6 - H3    
    13     55      1 ;     C6 - H21   
    14     22      1 ;     C7 - C15   
    14     38      1 ;     C7 - H4    
    14     39      1 ;     C7 - H5    
    14     55      1 ;     C7 - H21   
    15     18      1 ;     C8 - C11   
    15     19      1 ;     C8 - C12   
    15     33      1 ;     C8 - C26   
    15     56      1 ;     C8 - H22   
    15     57      1 ;     C8 - H23   
    16     17      1 ;     C9 - C10   
    16     26      1 ;     C9 - C19   
    16     37      1 ;     C9 - H3    
    16     38      1 ;     C9 - H4    
    16     39      1 ;     C9 - H5    
    17     30      1 ;    C10 - C23   
    17     50      1 ;    C10 - H16   
    18     28      1 ;    C11 - C21   
    18     31      1 ;    C11 - C24   
    18     34      1 ;    C11 - H     
    20     29      1 ;    C13 - C22   
    20     32      1 ;    C13 - C25   
    20     51      1 ;    C13 - H17   
    20     58      1 ;    C13 - H24   
    21     22      1 ;    C14 - C15   
    21     26      1 ;    C14 - C19   
    23     44      1 ;    C16 - H10   
    23     45      1 ;    C16 - H11   
    23     46      1 ;    C16 - H12   
    23     47      1 ;    C16 - H13   
    23     48      1 ;    C16 - H14   
    23     49      1 ;    C16 - H15   
    24     41      1 ;    C17 - H7    
    24     42      1 ;    C17 - H8    
    24     43      1 ;    C17 - H9    
    24     47      1 ;    C17 - H13   
    24     48      1 ;    C17 - H14   
    24     49      1 ;    C17 - H15   
    25     41      1 ;    C18 - H7    
    25     42      1 ;    C18 - H8    
    25     43      1 ;    C18 - H9    
    25     44      1 ;    C18 - H10   
    25     45      1 ;    C18 - H11   
    25     46      1 ;    C18 - H12   
    26     35      1 ;    C19 - H1    
    26     36      1 ;    C19 - H2    
    27     31      1 ;    C20 - C24   
    27     58      1 ;    C20 - H24   
    31     57      1 ;    C24 - H23   
    32     56      1 ;    C25 - H22   
    33     51      1 ;    C26 - H17   
    35     38      1 ;     H1 - H4    
    35     39      1 ;     H1 - H5    
    36     38      1 ;     H2 - H4    
    36     39      1 ;     H2 - H5    
    37     40      1 ;     H3 - H6    
    50     55      1 ;    H16 - H21   
    51     57      1 ;    H17 - H23   
    56     58      1 ;    H22 - H24   
    57     58      1 ;    H23 - H24   

[ angles ]
;   ai     aj     ak    funct   theta         cth
     1     10      8      1    1.0895e+02    7.1630e+02 ;      O - C3     - C1    
     1     10     28      1    1.0921e+02    7.1379e+02 ;      O - C3     - C21   
     1     10     34      1    1.0978e+02    5.2216e+02 ;      O - C3     - H     
     1     12     23      1    1.0797e+02    7.1379e+02 ;      O - C5     - C16   
     1     12     24      1    1.0797e+02    7.1379e+02 ;      O - C5     - C17   
     1     12     25      1    1.0797e+02    7.1379e+02 ;      O - C5     - C18   
     2     16     11      1    1.1920e+02    7.3053e+02 ;     O1 - C9     - C4    
     2     16     22      1    1.1920e+02    7.3053e+02 ;     O1 - C9     - C15   
     2     21     17      1    1.0797e+02    7.1379e+02 ;     O1 - C14    - C10   
     2     21     38      1    1.0978e+02    5.2216e+02 ;     O1 - C14    - H4    
     2     21     39      1    1.0978e+02    5.2216e+02 ;     O1 - C14    - H5    
     3     28      4      1    1.2210e+02    9.6818e+02 ;     O2 - C21    - O3    
     3     28     10      1    1.1273e+02    7.1797e+02 ;     O2 - C21    - C3    
     4     28     10      1    1.2320e+02    7.0793e+02 ;     O3 - C21    - C3    
     5     18      8      1    1.2294e+02    7.2634e+02 ;      N - C11    - C1    
     5     18     29      1    1.1668e+02    7.1044e+02 ;      N - C11    - C22   
     5     20     15      1    1.2294e+02    7.2634e+02 ;      N - C13    - C8    
     5     20     31      1    1.2294e+02    7.2634e+02 ;      N - C13    - C24   
     6     13      9      1    1.2358e+02    7.2300e+02 ;     N1 - C6     - C2    
     6     13     11      1    1.2294e+02    7.2634e+02 ;     N1 - C6     - C4    
     6     30     26      1    1.2294e+02    7.2634e+02 ;     N1 - C23    - C19   
     6     30     55      1    1.1603e+02    5.3639e+02 ;     N1 - C23    - H21   
     7      8     10      1    1.2063e+02    5.4810e+02 ;      C - C1     - C3    
     7      8     18      1    1.2069e+02    5.7237e+02 ;      C - C1     - C11   
     7      9     13      1    1.2111e+02    5.5312e+02 ;      C - C2     - C6    
     7      9     19      1    1.2111e+02    5.5312e+02 ;      C - C2     - C12   
     7     15     20      1    1.2069e+02    5.7237e+02 ;      C - C8     - C13   
     7     15     27      1    1.2069e+02    5.7237e+02 ;      C - C8     - C20   
     8      7      9      1    1.2111e+02    5.5312e+02 ;     C1 - C      - C2    
     8      7     15      1    1.1838e+02    5.7656e+02 ;     C1 - C      - C8    
     8     10     28      1    1.1101e+02    5.5061e+02 ;     C1 - C3     - C21   
     8     10     34      1    1.0956e+02    3.9748e+02 ;     C1 - C3     - H     
     8     18     29      1    1.2077e+02    5.4894e+02 ;     C1 - C11    - C22   
     9      7     15      1    1.2111e+02    5.5312e+02 ;     C2 - C      - C8    
     9     13     11      1    1.2069e+02    5.7237e+02 ;     C2 - C6     - C4    
     9     19     22      1    1.2069e+02    5.7237e+02 ;     C2 - C12    - C15   
     9     19     37      1    1.1986e+02    4.0585e+02 ;     C2 - C12    - H3    
    10      1     12      1    1.1248e+02    5.5480e+02 ;     C3 - O      - C5    
    10      8     18      1    1.2077e+02    5.4894e+02 ;     C3 - C1     - C11   
    11     14     17      1    1.2077e+02    5.4894e+02 ;     C4 - C7     - C10   
    11     14     26      1    1.2002e+02    5.7572e+02 ;     C4 - C7     - C19   
    11     16     22      1    1.2002e+02    5.7572e+02 ;     C4 - C9     - C15   
    12     23     41      1    1.0980e+02    3.9162e+02 ;     C5 - C16    - H7    
    12     23     42      1    1.0980e+02    3.9162e+02 ;     C5 - C16    - H8    
    12     23     43      1    1.0980e+02    3.9162e+02 ;     C5 - C16    - H9    
    12     24     44      1    1.0980e+02    3.9162e+02 ;     C5 - C17    - H10   
    12     24     45      1    1.0980e+02    3.9162e+02 ;     C5 - C17    - H11   
    12     24     46      1    1.0980e+02    3.9162e+02 ;     C5 - C17    - H12   
    12     25     47      1    1.0980e+02    3.9162e+02 ;     C5 - C18    - H13   
    12     25     48      1    1.0980e+02    3.9162e+02 ;     C5 - C18    - H14   
    12     25     49      1    1.0980e+02    3.9162e+02 ;     C5 - C18    - H15   
    13      6     30      1    1.1722e+02    5.8911e+02 ;     C6 - N1     - C23   
    13      9     19      1    1.1838e+02    5.7656e+02 ;     C6 - C2     - C12   
    13     11     14      1    1.2002e+02    5.7572e+02 ;     C6 - C4     - C7    
    13     11     16      1    1.2002e+02    5.7572e+02 ;     C6 - C4     - C9    
    14     11     16      1    1.2002e+02    5.7572e+02 ;     C7 - C4     - C9    
    14     17     21      1    1.1207e+02    5.4559e+02 ;     C7 - C10    - C14   
    14     17     35      1    1.1047e+02    3.9581e+02 ;     C7 - C10    - H1    
    14     17     36      1    1.1047e+02    3.9581e+02 ;     C7 - C10    - H2    
    14     26     30      1    1.2002e+02    5.7572e+02 ;     C7 - C19    - C23   
    14     26     50      1    1.1988e+02    4.0752e+02 ;     C7 - C19    - H16   
    15     20     31      1    1.2002e+02    5.7572e+02 ;     C8 - C13    - C24   
    15     27     32      1    1.2002e+02    5.7572e+02 ;     C8 - C20    - C25   
    15     27     51      1    1.1988e+02    4.0752e+02 ;     C8 - C20    - H17   
    16      2     21      1    1.1796e+02    5.5312e+02 ;     C9 - O1     - C14   
    16     22     19      1    1.2002e+02    5.7572e+02 ;     C9 - C15    - C12   
    16     22     40      1    1.1988e+02    4.0752e+02 ;     C9 - C15    - H6    
    17     14     26      1    1.2077e+02    5.4894e+02 ;    C10 - C7     - C19   
    17     21     38      1    1.0956e+02    3.9246e+02 ;    C10 - C14    - H4    
    17     21     39      1    1.0956e+02    3.9246e+02 ;    C10 - C14    - H5    
    18      5     20      1    1.1722e+02    5.8911e+02 ;    C11 - N      - C13   
    18     29     52      1    1.1047e+02    3.9581e+02 ;    C11 - C22    - H18   
    18     29     53      1    1.1047e+02    3.9581e+02 ;    C11 - C22    - H19   
    18     29     54      1    1.1047e+02    3.9581e+02 ;    C11 - C22    - H20   
    19     22     40      1    1.1988e+02    4.0752e+02 ;    C12 - C15    - H6    
    20     15     27      1    1.2002e+02    5.7572e+02 ;    C13 - C8     - C20   
    20     31     33      1    1.2002e+02    5.7572e+02 ;    C13 - C24    - C26   
    20     31     56      1    1.1988e+02    4.0752e+02 ;    C13 - C24    - H22   
    21     17     35      1    1.0980e+02    3.9162e+02 ;    C14 - C10    - H1    
    21     17     36      1    1.0980e+02    3.9162e+02 ;    C14 - C10    - H2    
    22     19     37      1    1.1988e+02    4.0752e+02 ;    C15 - C12    - H3    
    23     12     24      1    1.1151e+02    5.4308e+02 ;    C16 - C5     - C17   
    23     12     25      1    1.1151e+02    5.4308e+02 ;    C16 - C5     - C18   
    24     12     25      1    1.1151e+02    5.4308e+02 ;    C17 - C5     - C18   
    26     30     55      1    1.2034e+02    4.0668e+02 ;    C19 - C23    - H21   
    27     32     33      1    1.2002e+02    5.7572e+02 ;    C20 - C25    - C26   
    27     32     57      1    1.1988e+02    4.0752e+02 ;    C20 - C25    - H23   
    28      3     59      1    1.0655e+02    4.3179e+02 ;    C21 - O2     - H25   
    28     10     34      1    1.0822e+02    3.9748e+02 ;    C21 - C3     - H     
    30     26     50      1    1.1988e+02    4.0752e+02 ;    C23 - C19    - H16   
    31     33     32      1    1.2002e+02    5.7572e+02 ;    C24 - C26    - C25   
    31     33     58      1    1.1988e+02    4.0752e+02 ;    C24 - C26    - H24   
    32     27     51      1    1.1988e+02    4.0752e+02 ;    C25 - C20    - H17   
    32     33     58      1    1.1988e+02    4.0752e+02 ;    C25 - C26    - H24   
    33     31     56      1    1.1988e+02    4.0752e+02 ;    C26 - C24    - H22   
    33     32     57      1    1.1988e+02    4.0752e+02 ;    C26 - C25    - H23   
    35     17     36      1    1.0758e+02    3.2635e+02 ;     H1 - C10    - H2    
    38     21     39      1    1.0846e+02    3.2468e+02 ;     H4 - C14    - H5    
    41     23     42      1    1.0758e+02    3.2635e+02 ;     H7 - C16    - H8    
    41     23     43      1    1.0758e+02    3.2635e+02 ;     H7 - C16    - H9    
    42     23     43      1    1.0758e+02    3.2635e+02 ;     H8 - C16    - H9    
    44     24     45      1    1.0758e+02    3.2635e+02 ;    H10 - C17    - H11   
    44     24     46      1    1.0758e+02    3.2635e+02 ;    H10 - C17    - H12   
    45     24     46      1    1.0758e+02    3.2635e+02 ;    H11 - C17    - H12   
    47     25     48      1    1.0758e+02    3.2635e+02 ;    H13 - C18    - H14   
    47     25     49      1    1.0758e+02    3.2635e+02 ;    H13 - C18    - H15   
    48     25     49      1    1.0758e+02    3.2635e+02 ;    H14 - C18    - H15   
    52     29     53      1    1.0758e+02    3.2635e+02 ;    H18 - C22    - H19   
    52     29     54      1    1.0758e+02    3.2635e+02 ;    H18 - C22    - H20   
    53     29     54      1    1.0758e+02    3.2635e+02 ;    H19 - C22    - H20   

[ dihedrals ] ; propers
; for gromacs 4.5 or higher, using funct 9
;    i      j      k      l   func   phase     kd      pn
     1     10      8      7      9     0.00   0.00000   0 ;      O-    C3-    C1-     C
     1     10      8     18      9     0.00   0.00000   0 ;      O-    C3-    C1-   C11
     1     10     28      3      9   180.00   0.00000   2 ;      O-    C3-   C21-    O2
     1     10     28      4      9     0.00   0.33472   1 ;      O-    C3-   C21-    O3
     1     10     28      4      9   180.00   2.63592   2 ;      O-    C3-   C21-    O3
     1     10     28      4      9   180.00   4.18400   3 ;      O-    C3-   C21-    O3
     1     12     23     41      9     0.00   0.00000   0 ;      O-    C5-   C16-    H7
     1     12     23     41      9     0.00   1.04600   1 ;      O-    C5-   C16-    H7
     1     12     23     42      9     0.00   0.00000   0 ;      O-    C5-   C16-    H8
     1     12     23     42      9     0.00   1.04600   1 ;      O-    C5-   C16-    H8
     1     12     23     43      9     0.00   0.00000   0 ;      O-    C5-   C16-    H9
     1     12     23     43      9     0.00   1.04600   1 ;      O-    C5-   C16-    H9
     1     12     24     44      9     0.00   0.00000   0 ;      O-    C5-   C17-   H10
     1     12     24     44      9     0.00   1.04600   1 ;      O-    C5-   C17-   H10
     1     12     24     45      9     0.00   0.00000   0 ;      O-    C5-   C17-   H11
     1     12     24     45      9     0.00   1.04600   1 ;      O-    C5-   C17-   H11
     1     12     24     46      9     0.00   0.00000   0 ;      O-    C5-   C17-   H12
     1     12     24     46      9     0.00   1.04600   1 ;      O-    C5-   C17-   H12
     1     12     25     47      9     0.00   0.00000   0 ;      O-    C5-   C18-   H13
     1     12     25     47      9     0.00   1.04600   1 ;      O-    C5-   C18-   H13
     1     12     25     48      9     0.00   0.00000   0 ;      O-    C5-   C18-   H14
     1     12     25     48      9     0.00   1.04600   1 ;      O-    C5-   C18-   H14
     1     12     25     49      9     0.00   0.00000   0 ;      O-    C5-   C18-   H15
     1     12     25     49      9     0.00   1.04600   1 ;      O-    C5-   C18-   H15
     2     16     11     13      9   180.00  15.16700   2 ;     O1-    C9-    C4-    C6
     2     16     11     14      9   180.00  15.16700   2 ;     O1-    C9-    C4-    C7
     2     16     22     19      9   180.00  15.16700   2 ;     O1-    C9-   C15-   C12
     2     16     22     40      9   180.00  15.16700   2 ;     O1-    C9-   C15-    H6
     2     21     17     14      9     0.00   0.65084   3 ;     O1-   C14-   C10-    C7
     2     21     17     35      9     0.00   0.00000   0 ;     O1-   C14-   C10-    H1
     2     21     17     35      9     0.00   1.04600   1 ;     O1-   C14-   C10-    H1
     2     21     17     36      9     0.00   0.00000   0 ;     O1-   C14-   C10-    H2
     2     21     17     36      9     0.00   1.04600   1 ;     O1-   C14-   C10-    H2
     3     28     10      8      9   180.00   0.00000   2 ;     O2-   C21-    C3-    C1
     3     28     10     34      9   180.00   0.00000   2 ;     O2-   C21-    C3-     H
     4     28      3     59      9     0.00   7.94960   1 ;     O3-   C21-    O2-   H25
     4     28      3     59      9   180.00   9.62320   2 ;     O3-   C21-    O2-   H25
     4     28     10      8      9   180.00   0.00000   2 ;     O3-   C21-    C3-    C1
     4     28     10     34      9     0.00   3.34720   1 ;     O3-   C21-    C3-     H
     4     28     10     34      9   180.00   0.33472   3 ;     O3-   C21-    C3-     H
     5     18      8      7      9   180.00  15.16700   2 ;      N-   C11-    C1-     C
     5     18      8     10      9   180.00  15.16700   2 ;      N-   C11-    C1-    C3
     5     18     29     52      9     0.00   0.00000   0 ;      N-   C11-   C22-   H18
     5     18     29     53      9     0.00   0.00000   0 ;      N-   C11-   C22-   H19
     5     18     29     54      9     0.00   0.00000   0 ;      N-   C11-   C22-   H20
     5     20     15      7      9   180.00  15.16700   2 ;      N-   C13-    C8-     C
     5     20     15     27      9   180.00  15.16700   2 ;      N-   C13-    C8-   C20
     5     20     31     33      9   180.00  15.16700   2 ;      N-   C13-   C24-   C26
     5     20     31     56      9   180.00  15.16700   2 ;      N-   C13-   C24-   H22
     6     13      9      7      9   180.00  15.16700   2 ;     N1-    C6-    C2-     C
     6     13      9     19      9   180.00  15.16700   2 ;     N1-    C6-    C2-   C12
     6     13     11     14      9   180.00  15.16700   2 ;     N1-    C6-    C4-    C7
     6     13     11     16      9   180.00  15.16700   2 ;     N1-    C6-    C4-    C9
     6     30     26     14      9   180.00  15.16700   2 ;     N1-   C23-   C19-    C7
     6     30     26     50      9   180.00  15.16700   2 ;     N1-   C23-   C19-   H16
     7      8     10     28      9     0.00   0.00000   0 ;      C-    C1-    C3-   C21
     7      8     10     34      9     0.00   0.00000   0 ;      C-    C1-    C3-     H
     7      8     18     29      9   180.00  15.16700   2 ;      C-    C1-   C11-   C22
     7      9     13     11      9   180.00  15.16700   2 ;      C-    C2-    C6-    C4
     7      9     19     22      9   180.00  15.16700   2 ;      C-    C2-   C12-   C15
     7      9     19     37      9   180.00  15.16700   2 ;      C-    C2-   C12-    H3
     7     15     20     31      9   180.00  15.16700   2 ;      C-    C8-   C13-   C24
     7     15     27     32      9   180.00  15.16700   2 ;      C-    C8-   C20-   C25
     7     15     27     51      9   180.00  15.16700   2 ;      C-    C8-   C20-   H17
     8      7      9     13      9   180.00   3.32628   2 ;     C1-     C-    C2-    C6
     8      7      9     19      9   180.00   3.32628   2 ;     C1-     C-    C2-   C12
     8      7     15     20      9   180.00  15.16700   2 ;     C1-     C-    C8-   C13
     8      7     15     27      9   180.00  15.16700   2 ;     C1-     C-    C8-   C20
     8     18      5     20      9   180.00  20.08320   2 ;     C1-   C11-     N-   C13
     8     18     29     52      9   180.00   0.00000   2 ;     C1-   C11-   C22-   H18
     8     18     29     53      9   180.00   0.00000   2 ;     C1-   C11-   C22-   H19
     8     18     29     54      9   180.00   0.00000   2 ;     C1-   C11-   C22-   H20
     9      7      8     10      9   180.00  15.16700   2 ;     C2-     C-    C1-    C3
     9      7      8     18      9   180.00  15.16700   2 ;     C2-     C-    C1-   C11
     9      7     15     20      9   180.00  15.16700   2 ;     C2-     C-    C8-   C13
     9      7     15     27      9   180.00  15.16700   2 ;     C2-     C-    C8-   C20
     9     13      6     30      9   180.00  20.08320   2 ;     C2-    C6-    N1-   C23
     9     13     11     14      9   180.00  15.16700   2 ;     C2-    C6-    C4-    C7
     9     13     11     16      9   180.00  15.16700   2 ;     C2-    C6-    C4-    C9
     9     19     22     16      9   180.00  15.16700   2 ;     C2-   C12-   C15-    C9
     9     19     22     40      9   180.00  15.16700   2 ;     C2-   C12-   C15-    H6
    10      1     12     23      9     0.00   0.00000   0 ;     C3-     O-    C5-   C16
    10      1     12     23      9     0.00   0.66944   2 ;     C3-     O-    C5-   C16
    10      1     12     23      9     0.00   1.00416   3 ;     C3-     O-    C5-   C16
    10      1     12     24      9     0.00   0.00000   0 ;     C3-     O-    C5-   C17
    10      1     12     24      9     0.00   0.66944   2 ;     C3-     O-    C5-   C17
    10      1     12     24      9     0.00   1.00416   3 ;     C3-     O-    C5-   C17
    10      1     12     25      9     0.00   0.00000   0 ;     C3-     O-    C5-   C18
    10      1     12     25      9     0.00   0.66944   2 ;     C3-     O-    C5-   C18
    10      1     12     25      9     0.00   1.00416   3 ;     C3-     O-    C5-   C18
    10      8      7     15      9   180.00  15.16700   2 ;     C3-    C1-     C-    C8
    10      8     18     29      9   180.00  15.16700   2 ;     C3-    C1-   C11-   C22
    10     28      3     59      9   180.00   7.44752   2 ;     C3-   C21-    O2-   H25
    11     13      6     30      9   180.00  20.08320   2 ;     C4-    C6-    N1-   C23
    11     13      9     19      9   180.00  15.16700   2 ;     C4-    C6-    C2-   C12
    11     14     17     21      9   180.00   1.02508   2 ;     C4-    C7-   C10-   C14
    11     14     17     35      9   180.00   0.00000   2 ;     C4-    C7-   C10-    H1
    11     14     17     36      9   180.00   0.00000   2 ;     C4-    C7-   C10-    H2
    11     14     26     30      9   180.00  15.16700   2 ;     C4-    C7-   C19-   C23
    11     14     26     50      9   180.00  15.16700   2 ;     C4-    C7-   C19-   H16
    11     16      2     21      9   180.00   6.73624   2 ;     C4-    C9-    O1-   C14
    11     16     22     19      9   180.00  15.16700   2 ;     C4-    C9-   C15-   C12
    11     16     22     40      9   180.00  15.16700   2 ;     C4-    C9-   C15-    H6
    12      1     10      8      9     0.00   1.60387   3 ;     C5-     O-    C3-    C1
    12      1     10     28      9     0.00   1.60387   3 ;     C5-     O-    C3-   C21
    12      1     10     34      9     0.00   1.41001   3 ;     C5-     O-    C3-     H
    13      6     30     26      9   180.00  20.08320   2 ;     C6-    N1-   C23-   C19
    13      6     30     55      9   180.00  20.08320   2 ;     C6-    N1-   C23-   H21
    13      9      7     15      9   180.00   3.32628   2 ;     C6-    C2-     C-    C8
    13      9     19     22      9   180.00  15.16700   2 ;     C6-    C2-   C12-   C15
    13      9     19     37      9   180.00  15.16700   2 ;     C6-    C2-   C12-    H3
    13     11     14     17      9   180.00  15.16700   2 ;     C6-    C4-    C7-   C10
    13     11     14     26      9   180.00  15.16700   2 ;     C6-    C4-    C7-   C19
    13     11     16     22      9   180.00  15.16700   2 ;     C6-    C4-    C9-   C15
    14     11     16     22      9   180.00  15.16700   2 ;     C7-    C4-    C9-   C15
    14     17     21     38      9     0.00   0.65084   3 ;     C7-   C10-   C14-    H4
    14     17     21     39      9     0.00   0.65084   3 ;     C7-   C10-   C14-    H5
    14     26     30     55      9   180.00  15.16700   2 ;     C7-   C19-   C23-   H21
    15      7      8     18      9   180.00  15.16700   2 ;     C8-     C-    C1-   C11
    15      7      9     19      9   180.00   3.32628   2 ;     C8-     C-    C2-   C12
    15     20      5     18      9   180.00  20.08320   2 ;     C8-   C13-     N-   C11
    15     20     31     33      9   180.00  15.16700   2 ;     C8-   C13-   C24-   C26
    15     20     31     56      9   180.00  15.16700   2 ;     C8-   C13-   C24-   H22
    15     27     32     33      9   180.00  15.16700   2 ;     C8-   C20-   C25-   C26
    15     27     32     57      9   180.00  15.16700   2 ;     C8-   C20-   C25-   H23
    16      2     21     17      9     0.00   1.60387   3 ;     C9-    O1-   C14-   C10
    16      2     21     38      9     0.00   1.60387   3 ;     C9-    O1-   C14-    H4
    16      2     21     39      9     0.00   1.60387   3 ;     C9-    O1-   C14-    H5
    16     11     14     17      9   180.00  15.16700   2 ;     C9-    C4-    C7-   C10
    16     11     14     26      9   180.00  15.16700   2 ;     C9-    C4-    C7-   C19
    16     22     19     37      9   180.00  15.16700   2 ;     C9-   C15-   C12-    H3
    17     14     26     30      9   180.00  15.16700   2 ;    C10-    C7-   C19-   C23
    17     14     26     50      9   180.00  15.16700   2 ;    C10-    C7-   C19-   H16
    18      5     20     31      9   180.00  20.08320   2 ;    C11-     N-   C13-   C24
    18      8     10     28      9     0.00   0.00000   0 ;    C11-    C1-    C3-   C21
    18      8     10     34      9     0.00   0.00000   0 ;    C11-    C1-    C3-     H
    20      5     18     29      9   180.00  20.08320   2 ;    C13-     N-   C11-   C22
    20     15     27     32      9   180.00  15.16700   2 ;    C13-    C8-   C20-   C25
    20     15     27     51      9   180.00  15.16700   2 ;    C13-    C8-   C20-   H17
    20     31     33     32      9   180.00  15.16700   2 ;    C13-   C24-   C26-   C25
    20     31     33     58      9   180.00  15.16700   2 ;    C13-   C24-   C26-   H24
    21      2     16     22      9   180.00   6.73624   2 ;    C14-    O1-    C9-   C15
    21     17     14     26      9   180.00   1.02508   2 ;    C14-   C10-    C7-   C19
    23     12     24     44      9     0.00   0.33472   3 ;    C16-    C5-   C17-   H10
    23     12     24     45      9     0.00   0.33472   3 ;    C16-    C5-   C17-   H11
    23     12     24     46      9     0.00   0.33472   3 ;    C16-    C5-   C17-   H12
    23     12     25     47      9     0.00   0.33472   3 ;    C16-    C5-   C18-   H13
    23     12     25     48      9     0.00   0.33472   3 ;    C16-    C5-   C18-   H14
    23     12     25     49      9     0.00   0.33472   3 ;    C16-    C5-   C18-   H15
    24     12     23     41      9     0.00   0.33472   3 ;    C17-    C5-   C16-    H7
    24     12     23     42      9     0.00   0.33472   3 ;    C17-    C5-   C16-    H8
    24     12     23     43      9     0.00   0.33472   3 ;    C17-    C5-   C16-    H9
    24     12     25     47      9     0.00   0.33472   3 ;    C17-    C5-   C18-   H13
    24     12     25     48      9     0.00   0.33472   3 ;    C17-    C5-   C18-   H14
    24     12     25     49      9     0.00   0.33472   3 ;    C17-    C5-   C18-   H15
    25     12     23     41      9     0.00   0.33472   3 ;    C18-    C5-   C16-    H7
    25     12     23     42      9     0.00   0.33472   3 ;    C18-    C5-   C16-    H8
    25     12     23     43      9     0.00   0.33472   3 ;    C18-    C5-   C16-    H9
    25     12     24     44      9     0.00   0.33472   3 ;    C18-    C5-   C17-   H10
    25     12     24     45      9     0.00   0.33472   3 ;    C18-    C5-   C17-   H11
    25     12     24     46      9     0.00   0.33472   3 ;    C18-    C5-   C17-   H12
    26     14     17     35      9   180.00   0.00000   2 ;    C19-    C7-   C10-    H1
    26     14     17     36      9   180.00   0.00000   2 ;    C19-    C7-   C10-    H2
    27     15     20     31      9   180.00  15.16700   2 ;    C20-    C8-   C13-   C24
    27     32     33     31      9   180.00  15.16700   2 ;    C20-   C25-   C26-   C24
    27     32     33     58      9   180.00  15.16700   2 ;    C20-   C25-   C26-   H24
    31     33     32     57      9   180.00  15.16700   2 ;    C24-   C26-   C25-   H23
    32     33     31     56      9   180.00  15.16700   2 ;    C25-   C26-   C24-   H22
    33     32     27     51      9   180.00  15.16700   2 ;    C26-   C25-   C20-   H17
    35     17     21     38      9     0.00   0.65084   3 ;     H1-   C10-   C14-    H4
    35     17     21     39      9     0.00   0.65084   3 ;     H1-   C10-   C14-    H5
    36     17     21     38      9     0.00   0.65084   3 ;     H2-   C10-   C14-    H4
    36     17     21     39      9     0.00   0.65084   3 ;     H2-   C10-   C14-    H5
    37     19     22     40      9   180.00  15.16700   2 ;     H3-   C12-   C15-    H6
    50     26     30     55      9   180.00  15.16700   2 ;    H16-   C19-   C23-   H21
    51     27     32     57      9   180.00  15.16700   2 ;    H17-   C20-   C25-   H23
    56     31     33     58      9   180.00  15.16700   2 ;    H22-   C24-   C26-   H24
    57     32     33     58      9   180.00  15.16700   2 ;    H23-   C25-   C26-   H24

[ dihedrals ] ; impropers
; treated as propers in GROMACS to use correct AMBER analytical function
;    i      j      k      l   func   phase     kd      pn
     8     15      7      9      4   180.00   4.60240   2 ;     C1-    C8-     C-    C2
    10      4     28      3      4   180.00   4.60240   2 ;     C3-    O3-   C21-    O2
    10     18      8      7      4   180.00   4.60240   2 ;     C3-   C11-    C1-     C
    11      9     13      6      4   180.00   4.60240   2 ;     C4-    C2-    C6-    N1
    11     22     16      2      4   180.00   4.60240   2 ;     C4-   C15-    C9-    O1
    11     26     14     17      4   180.00   4.60240   2 ;     C4-   C19-    C7-   C10
    13     14     11     16      4   180.00   4.60240   2 ;     C6-    C7-    C4-    C9
    13     19      9      7      4   180.00   4.60240   2 ;     C6-   C12-    C2-     C
    14     30     26     50      4   180.00   4.60240   2 ;     C7-   C23-   C19-   H16
    15     31     20      5      4   180.00   4.60240   2 ;     C8-   C24-   C13-     N
    15     32     27     51      4   180.00   4.60240   2 ;     C8-   C25-   C20-   H17
    16     19     22     40      4   180.00   4.60240   2 ;     C9-   C12-   C15-    H6
    20     27     15      7      4   180.00   4.60240   2 ;    C13-   C20-    C8-     C
    20     33     31     56      4   180.00   4.60240   2 ;    C13-   C26-   C24-   H22
    22      9     19     37      4   180.00   4.60240   2 ;    C15-    C2-   C12-    H3
    26     55     30      6      4   180.00   4.60240   2 ;    C19-   H21-   C23-    N1
    27     33     32     57      4   180.00   4.60240   2 ;    C20-   C26-   C25-   H23
    29      8     18      5      4   180.00   4.60240   2 ;    C22-    C1-   C11-     N
    31     32     33     58      4   180.00   4.60240   2 ;    C24-   C25-   C26-   H24