%VERSION  VERSION_STAMP = V0001.000  DATE = 03/24/26  12:38:58                  
%FLAG TITLE                                                                     
%FORMAT(20a4)                                                                   
ligand.pdb                                                                      
%FLAG POINTERS                                                                  
%FORMAT(10I8)                                                                   
      59      11      26      37      54      56     101      96       0       0
     325       1      37      56      96      16      35      25      13       0
       0       0       0       0       0       0       0       0      59       0
       0
%FLAG ATOM_NAME                                                                 
%FORMAT(20a4)                                                                   
O   O1  O2  O3  N   N1  C   C1  C2  C3  C4  C5  C6  C7  C8  C9  C10 C11 C12 C13 
C14 C15 C16 C17 C18 C19 C20 C21 C22 C23 C24 C25 C26 H   H1  H2  H3  H4  H5  H6  
H7  H8  H9  H10 H11 H12 H13 H14 H15 H16 H17 H18 H19 H20 H21 H22 H23 H24 H25 
%FLAG CHARGE                                                                    
%FORMAT(5E16.8)                                                                 
 -7.20874188E+00 -5.88398067E+00 -1.12267590E+01 -9.65781900E+00 -1.22271633E+01
 -1.20084957E+01  1.53067320E+00 -3.71006028E+00 -2.37436569E+00  3.05041302E+00
 -3.54059289E+00  2.69325594E+00  8.15630148E+00 -3.15245790E-01 -2.57481099E+00
  2.68050033E+00 -1.40493933E+00  8.21096838E+00 -7.83558900E-01  7.46385408E+00
  2.37618792E+00 -3.07956870E+00 -2.05487410E+00 -2.05487410E+00 -2.05487410E+00
 -4.65215319E+00 -1.73111850E+00  1.12632036E+01 -2.99574612E+00  7.78456656E+00
 -3.15792459E+00 -2.49645510E+00 -2.16845370E+00  1.48876191E+00  1.29742776E+00
  1.29742776E+00  2.69690040E+00  1.10609361E+00  1.10609361E+00  2.75156730E+00
  8.75271736E-01  8.75271736E-01  8.75271736E-01  8.75271736E-01  8.75271736E-01
  8.75271736E-01  8.75271736E-01  8.75271736E-01  8.75271736E-01  2.62401120E+00
  2.56934430E+00  1.10002558E+00  1.10002558E+00  1.10002558E+00  4.02712830E-01
  2.71512270E+00  2.42356590E+00  2.42356590E+00  8.07247890E+00
%FLAG ATOMIC_NUMBER                                                             
%FORMAT(10I8)                                                                   
       8       8       8       8       7       7       6       6       6       6
       6       6       6       6       6       6       6       6       6       6
       6       6       6       6       6       6       6       6       6       6
       6       6       6       1       1       1       1       1       1       1
       1       1       1       1       1       1       1       1       1       1
       1       1       1       1       1       1       1       1       1
%FLAG MASS                                                                      
%FORMAT(5E16.8)                                                                 
  1.60000000E+01  1.60000000E+01  1.60000000E+01  1.60000000E+01  1.40100000E+01
  1.40100000E+01  1.20100000E+01  1.20100000E+01  1.20100000E+01  1.20100000E+01
  1.20100000E+01  1.20100000E+01  1.20100000E+01  1.20100000E+01  1.20100000E+01
  1.20100000E+01  1.20100000E+01  1.20100000E+01  1.20100000E+01  1.20100000E+01
  1.20100000E+01  1.20100000E+01  1.20100000E+01  1.20100000E+01  1.20100000E+01
  1.20100000E+01  1.20100000E+01  1.20100000E+01  1.20100000E+01  1.20100000E+01
  1.20100000E+01  1.20100000E+01  1.20100000E+01  1.00800000E+00  1.00800000E+00
  1.00800000E+00  1.00800000E+00  1.00800000E+00  1.00800000E+00  1.00800000E+00
  1.00800000E+00  1.00800000E+00  1.00800000E+00  1.00800000E+00  1.00800000E+00
  1.00800000E+00  1.00800000E+00  1.00800000E+00  1.00800000E+00  1.00800000E+00
  1.00800000E+00  1.00800000E+00  1.00800000E+00  1.00800000E+00  1.00800000E+00
  1.00800000E+00  1.00800000E+00  1.00800000E+00  1.00800000E+00
%FLAG ATOM_TYPE_INDEX                                                           
%FORMAT(10I8)                                                                   
       1       1       2       3       4       4       5       5       5       6
       5       6       5       5       5       5       6       5       5       5
       6       5       6       6       6       5       5       5       6       5
       5       5       5       7       8       8       9       7       7       9
       8       8       8       8       8       8       8       8       8       9
       9       8       8       8      10       9       9       9      11
%FLAG NUMBER_EXCLUDED_ATOMS                                                     
%FORMAT(10I8)                                                                   
      21      13       6       5      14      11      18      15      14      10
      13      14      10      12      10       9       8       8       3       8
       6       2      11      10       9       5       6       2       3       2
       5       5       4       1       3       2       1       1       1       1
       2       1       1       2       1       1       2       1       1       1
       1       2       1       1       1       1       1       1       1
%FLAG NONBONDED_PARM_INDEX                                                      
%FORMAT(10I8)                                                                   
       1       2       4       7      11      16      22      29      37      46
      56       2       3       5       8      12      17      23      30      38
      47      57       4       5       6       9      13      18      24      31
      39      48      58       7       8       9      10      14      19      25
      32      40      49      59      11      12      13      14      15      20
      26      33      41      50      60      16      17      18      19      20
      21      27      34      42      51      61      22      23      24      25
      26      27      28      35      43      52      62      29      30      31
      32      33      34      35      36      44      53      63      37      38
      39      40      41      42      43      44      45      54      64      46
      47      48      49      50      51      52      53      54      55      65
      56      57      58      59      60      61      62      63      64      65
      66
%FLAG RESIDUE_LABEL                                                             
%FORMAT(20a4)                                                                   
UNK 
%FLAG RESIDUE_POINTER                                                           
%FORMAT(10I8)                                                                   
       1
%FLAG BOND_FORCE_CONSTANT                                                       
%FORMAT(5E16.8)                                                                 
  2.84800000E+02  3.57500000E+02  3.83100000E+02  5.63500000E+02  6.52600000E+02
  4.14200000E+02  3.68400000E+02  2.77600000E+02  2.50300000E+02  3.78600000E+02
  2.43200000E+02  3.75900000E+02  2.32500000E+02  3.75900000E+02  3.95700000E+02
  3.90100000E+02
%FLAG BOND_EQUIL_VALUE                                                          
%FORMAT(5E16.8)                                                                 
  1.43200000E+00  1.37000000E+00  1.35100000E+00  9.73000000E-01  1.21800000E+00
  1.33900000E+00  1.40600000E+00  1.48500000E+00  1.51600000E+00  1.39800000E+00
  1.52400000E+00  1.09700000E+00  1.53800000E+00  1.09700000E+00  1.08600000E+00
  1.08900000E+00
%FLAG ANGLE_FORCE_CONSTANT                                                      
%FORMAT(5E16.8)                                                                 
  8.56000000E+01  8.53000000E+01  6.24000000E+01  8.53000000E+01  8.73000000E+01
  1.15700000E+02  8.58000000E+01  8.46000000E+01  8.68000000E+01  8.49000000E+01
  8.64000000E+01  6.41000000E+01  6.55000000E+01  6.84000000E+01  6.61000000E+01
  6.89000000E+01  6.58000000E+01  4.75000000E+01  6.56000000E+01  4.85000000E+01
  6.63000000E+01  6.88000000E+01  4.68000000E+01  7.04000000E+01  6.52000000E+01
  4.73000000E+01  4.87000000E+01  6.61000000E+01  4.69000000E+01  6.49000000E+01
  4.86000000E+01  5.16000000E+01  4.75000000E+01  3.90000000E+01  3.88000000E+01
%FLAG ANGLE_EQUIL_VALUE                                                         
%FORMAT(5E16.8)                                                                 
  1.90153704E+00  1.90607489E+00  1.91602327E+00  1.88443280E+00  2.08043336E+00
  2.13104793E+00  1.96751051E+00  2.15024656E+00  2.14570870E+00  2.03645104E+00
  2.15687881E+00  2.02510640E+00  2.10539158E+00  2.10643878E+00  2.11376916E+00
  2.06612165E+00  1.93749083E+00  1.91218355E+00  2.10783504E+00  2.09195254E+00
  1.96314718E+00  2.09474507E+00  1.91637234E+00  2.04587583E+00  1.95599133E+00
  1.92806605E+00  2.09230160E+00  2.05879127E+00  1.91218355E+00  1.94621748E+00
  2.10033012E+00  1.85964912E+00  1.88879613E+00  1.87762601E+00  1.89298492E+00
%FLAG DIHEDRAL_FORCE_CONSTANT                                                   
%FORMAT(5E16.8)                                                                 
  0.00000000E+00  0.00000000E+00  8.00000000E-02  6.30000000E-01  1.00000000E+00
  2.50000000E-01  0.00000000E+00  3.62500000E+00  1.55555556E-01  1.90000000E+00
  2.30000000E+00  8.00000000E-01  8.00000000E-02  7.95000000E-01  3.83333333E-01
  4.80000000E+00  0.00000000E+00  1.60000000E-01  2.40000000E-01  1.78000000E+00
  2.45000000E-01  1.61000000E+00  3.37000000E-01  8.00000000E-02  1.10000000E+00
%FLAG DIHEDRAL_PERIODICITY                                                      
%FORMAT(5E16.8)                                                                 
  2.00000000E+00  2.00000000E+00  1.00000000E+00  2.00000000E+00  3.00000000E+00
  1.00000000E+00  3.00000000E+00  2.00000000E+00  3.00000000E+00  1.00000000E+00
  2.00000000E+00  1.00000000E+00  3.00000000E+00  2.00000000E+00  3.00000000E+00
  2.00000000E+00  1.00000000E+00  2.00000000E+00  3.00000000E+00  2.00000000E+00
  2.00000000E+00  2.00000000E+00  3.00000000E+00  3.00000000E+00  2.00000000E+00
%FLAG DIHEDRAL_PHASE                                                            
%FORMAT(5E16.8)                                                                 
  0.00000000E+00  3.14159400E+00  0.00000000E+00  3.14159400E+00  3.14159400E+00
  0.00000000E+00  0.00000000E+00  3.14159400E+00  0.00000000E+00  0.00000000E+00
  3.14159400E+00  0.00000000E+00  3.14159400E+00  3.14159400E+00  0.00000000E+00
  3.14159400E+00  0.00000000E+00  0.00000000E+00  0.00000000E+00  3.14159400E+00
  3.14159400E+00  3.14159400E+00  0.00000000E+00  0.00000000E+00  3.14159400E+00
%FLAG SCEE_SCALE_FACTOR                                                         
%FORMAT(5E16.8)                                                                 
  1.20000000E+00  1.20000000E+00  1.20000000E+00  1.20000000E+00  1.20000000E+00
  1.20000000E+00  1.20000000E+00  1.20000000E+00  1.20000000E+00  1.20000000E+00
  1.20000000E+00  1.20000000E+00  1.20000000E+00  1.20000000E+00  1.20000000E+00
  1.20000000E+00  1.20000000E+00  1.20000000E+00  1.20000000E+00  1.20000000E+00
  1.20000000E+00  1.20000000E+00  1.20000000E+00  1.20000000E+00  0.00000000E+00
%FLAG SCNB_SCALE_FACTOR                                                         
%FORMAT(5E16.8)                                                                 
  2.00000000E+00  2.00000000E+00  2.00000000E+00  2.00000000E+00  2.00000000E+00
  2.00000000E+00  2.00000000E+00  2.00000000E+00  2.00000000E+00  2.00000000E+00
  2.00000000E+00  2.00000000E+00  2.00000000E+00  2.00000000E+00  2.00000000E+00
  2.00000000E+00  2.00000000E+00  2.00000000E+00  2.00000000E+00  2.00000000E+00
  2.00000000E+00  2.00000000E+00  2.00000000E+00  2.00000000E+00  0.00000000E+00
%FLAG SOLTY                                                                     
%FORMAT(5E16.8)                                                                 
  0.00000000E+00  0.00000000E+00  0.00000000E+00  0.00000000E+00  0.00000000E+00
  0.00000000E+00  0.00000000E+00  0.00000000E+00  0.00000000E+00  0.00000000E+00
  0.00000000E+00  0.00000000E+00  0.00000000E+00
%FLAG LENNARD_JONES_ACOEF                                                       
%FORMAT(5E16.8)                                                                 
  2.83662575E+05  3.78207390E+05  5.03152404E+05  3.27367585E+05  4.37717034E+05
  3.76435470E+05  4.94433451E+05  6.55497149E+05  5.74782316E+05  8.49322032E+05
  4.46121722E+05  5.92438683E+05  5.17507491E+05  7.69642101E+05  6.96551276E+05
  5.42502534E+05  7.18991463E+05  6.30925504E+05  9.31115275E+05  8.43969952E+05
  1.02073671E+06  3.44374471E+04  4.69084694E+04  3.86646725E+04  6.34160397E+04
  5.63013422E+04  6.97998263E+04  3.39005767E+03  5.02224902E+04  6.80216136E+04
  5.68021765E+04  9.11435380E+04  8.12662403E+04  1.00235148E+05  5.22955465E+03
  7.94617769E+03  4.65732396E+04  6.30298721E+04  5.27277400E+04  8.43518904E+04
  7.52549148E+04  9.27554496E+04  4.88692384E+03  7.41026906E+03  6.90855956E+03
  3.86549715E+04  5.24591488E+04  4.36069364E+04  7.05112106E+04  6.27751680E+04
  7.75673747E+04  3.94664935E+03  6.02863188E+03  5.62610481E+03  4.56536476E+03
  1.16469347E+02  1.74176419E+02  1.15813907E+02  2.72118326E+02  2.25372434E+02
  3.03553352E+02  4.36660257E+00  8.80612241E+00  8.53132435E+00  6.05535196E+00
  1.10360882E-05
%FLAG LENNARD_JONES_BCOEF                                                       
%FORMAT(5E16.8)                                                                 
  2.87011518E+02  3.52573684E+02  4.32634597E+02  3.67361018E+02  4.51916854E+02
  4.69350655E+02  4.04310927E+02  4.95260330E+02  5.19385932E+02  5.65406768E+02
  3.88758656E+02  4.76608379E+02  4.98871431E+02  5.44830041E+02  5.24668528E+02
  4.38146883E+02  5.36620538E+02  5.62969425E+02  6.12468585E+02  5.90251928E+02
  6.63431737E+02  7.31636661E+01  9.08431526E+01  9.23664132E+01  1.05935811E+02
  1.01040256E+02  1.14981426E+02  1.67944276E+01  8.83545880E+01  1.09393126E+02
  1.11953944E+02  1.27000718E+02  1.21392023E+02  1.37787728E+02  2.08590256E+01
  2.57122925E+01  7.98066064E+01  9.87712192E+01  1.01173582E+02  1.14599119E+02
  1.09570372E+02  1.24325688E+02  1.89134207E+01  2.32899892E+01  2.10929191E+01
  7.27065100E+01  9.01089277E+01  9.20079458E+01  1.04776275E+02  1.00073628E+02
  1.13692208E+02  1.69967767E+01  2.10068861E+01  1.90347353E+01  1.71467049E+01
  2.93355636E+00  3.81654050E+00  3.48534600E+00  4.78443613E+00  4.40751799E+00
  5.22789272E+00  4.15568027E-01  5.90150328E-01  5.44840215E-01  4.59018960E-01
  4.55498033E-04
%FLAG BONDS_INC_HYDROGEN                                                        
%FORMAT(10I8)                                                                   
       6     174       4      27      99      12      48     102      14      48
     105      14      54     108      15      60     111      12      60     114
      12      63     117      15      66     120      14      66     123      14
      66     126      14      69     129      14      69     132      14      69
     135      14      72     138      14      72     141      14      72     144
      14      75     147      15      78     150      15      84     153      14
      84     156      14      84     159      14      87     162      16      90
     165      15      93     168      15      96     171      15
%FLAG BONDS_WITHOUT_HYDROGEN                                                    
%FORMAT(10I8)                                                                   
       0      27       1       0      33       1       3      45       2       3
      60       1       6      81       3       9      81       5      12      51
       6      12      57       6      15      36       6      15      87       6
      18      21       7      18      24       8      18      42       7      21
      27       9      21      51      10      24      36       7      24      54
       7      27      81      11      30      36      10      30      39      10
      30      45      10      33      66      13      33      69      13      33
      72      13      39      48       9      39      75      10      42      57
      10      42      78      10      45      63      10      48      60      13
      51      84       9      54      63      10      57      90      10      75
      87      10      78      93      10      90      96      10      93      96
      10
%FLAG ANGLES_INC_HYDROGEN                                                       
%FORMAT(10I8)                                                                   
       0      27      99       3       3      60     111       3       3      60
     114       3      15      87     162      12      21      27      99      18
      24      54     108      20      33      66     120      23      33      66
     123      23      33      66     126      23      33      69     129      23
      33      69     132      23      33      69     135      23      33      72
     138      23      33      72     141      23      33      72     144      23
      39      48     102      26      39      48     105      26      39      75
     147      27      42      78     150      27      45      63     117      27
      48      60     111      29      48      60     114      29      51      84
     153      26      51      84     156      26      51      84     159      26
      54      63     117      27      57      90     165      27      60      48
     102      23      60      48     105      23      63      54     108      27
      75      87     162      31      78      93     168      27      81       6
     174      32      81      27      99      33      87      75     147      27
      90      96     171      27      93      78     150      27      93      96
     171      27      96      90     165      27      96      93     168      27
     102      48     105      34     111      60     114      35     120      66
     123      34     120      66     126      34     123      66     126      34
     129      69     132      34     129      69     135      34     132      69
     135      34     138      72     141      34     138      72     144      34
     141      72     144      34     153      84     156      34     153      84
     159      34     156      84     159      34
%FLAG ANGLES_WITHOUT_HYDROGEN                                                   
%FORMAT(10I8)                                                                   
       0      27      21       1       0      27      81       2       0      33
      66       4       0      33      69       4       0      33      72       4
       3      45      30       5       3      45      63       5       3      60
      48       4       6      81       9       6       6      81      27       7
       9      81      27       8      12      51      21       9      12      51
      84      10      12      57      42       9      12      57      90       9
      15      36      24      11      15      36      30       9      15      87
      75       9      18      21      27      13      18      21      51      14
      18      24      36      15      18      24      54      15      18      42
      57      14      18      42      78      14      21      18      24      15
      21      18      42      16      21      27      81      17      21      51
      84      19      24      18      42      15      24      36      30      14
      24      54      63      14      27       0      33      21      27      21
      51      19      30      39      48      19      30      39      75      22
      30      45      63      22      36      15      87      24      36      24
      54      16      36      30      39      22      36      30      45      22
      39      30      45      22      39      48      60      25      39      75
      87      22      42      57      90      22      42      78      93      22
      45       3      60      28      45      63      54      22      48      39
      75      19      51      12      57      24      57      42      78      22
      57      90      96      22      66      33      69      30      66      33
      72      30      69      33      72      30      78      93      96      22
      90      96      93      22
%FLAG DIHEDRALS_INC_HYDROGEN                                                    
%FORMAT(10I8)                                                                   
       0      33      66     120       6       0      33     -66     120       7
       0      33      66     123       6       0      33     -66     123       7
       0      33      66     126       6       0      33     -66     126       7
       0      33      69     129       6       0      33     -69     129       7
       0      33      69     132       6       0      33     -69     132       7
       0      33      69     135       6       0      33     -69     135       7
       0      33      72     138       6       0      33     -72     138       7
       0      33      72     141       6       0      33     -72     141       7
       0      33      72     144       6       0      33     -72     144       7
       3      45      63     117       8       3      60      48     102       6
       3      60     -48     102       7       3      60      48     105       6
       3      60     -48     105       7       6      81      27      99       2
       9      81       6     174      10       9      81      -6     174      11
       9      81      27      99      12       9      81     -27      99      13
      12      51      84     153       1      12      51      84     156       1
      12      51      84     159       1      12      57      90     165       8
      15      87      75     147       8      18      21      27      99       1
      18      24      54     108       8      18      42      78     150       8
      21      51      84     153       2      21      51      84     156       2
      21      51      84     159       2      24      54      63     117       8
      27      81       6     174      20      30      39      48     102       2
      30      39      48     105       2      30      39      75     147       8
      30      45      63     117       8      33       0      27      99      23
      36      15      87     162      16      36      24      54     108       8
      39      48      60     111       9      39      48      60     114       9
      39      75      87     162       8      42      57      90     165       8
      42      78      93     168       8      45       3      60     111      15
      45       3      60     114      15      45      63      54     108       8
      48      39      75     147       8      51      21      27      99       1
      57      42      78     150       8      57      90      96     171       8
      66      33      69     129      24      66      33      69     132      24
      66      33      69     135      24      66      33      72     138      24
      66      33      72     141      24      66      33      72     144      24
      69      33      66     120      24      69      33      66     123      24
      69      33      66     126      24      69      33      72     138      24
      69      33      72     141      24      69      33      72     144      24
      72      33      66     120      24      72      33      66     123      24
      72      33      66     126      24      72      33      69     129      24
      72      33      69     132      24      72      33      69     135      24
      75      39      48     102       2      75      39      48     105       2
      78      93      96     171       8      90      96      93     168       8
      93      96      90     165       8      96      93      78     150       8
     102      48      60     111       9     102      48      60     114       9
     105      48      60     111       9     105      48      60     114       9
     108      54      63     117       8     147      75      87     162       8
     150      78      93     168       8     165      90      96     171       8
     168      93      96     171       8      63      24     -54    -108      25
      45      54     -63    -117      25      39      87     -75    -147      25
      42      93     -78    -150      25      75     162     -87     -15      25
      57      96     -90    -165      25      78      96     -93    -168      25
      90      93     -96    -171      25
%FLAG DIHEDRALS_WITHOUT_HYDROGEN                                                
%FORMAT(10I8)                                                                   
       0      27      21      18       1       0      27      21      51       1
       0      27      81       6       2       0      27      81       9       3
       0      27     -81       9       4       0      27     -81       9       5
       3      45      30      36       8       3      45      30      39       8
       3      45      63      54       8       3      60     -48      39       9
       6      81      27      21       2       9      81      27      21       2
      12      51      21      18       8      12      51      21      27       8
      12      57     -42      18       8      12      57      42      78       8
      12      57      90      96       8      15      36      24      18       8
      15      36      24      54       8      15      36      30      39       8
      15      36      30      45       8      15      87     -75      39       8
      18      21      27      81       1      18      21      51      84       8
      18      24      36      30       8      18      24      54      63       8
      18      42      57      90       8      18      42      78      93       8
      21      18      24      36      14      21      18      24      54      14
      21      18      42      57       8      21      18      42      78       8
      33       0      27      21      15      21      51     -12      57      16
      24      18      21      27       8      24      18      21      51       8
      24      18      42      57       8      24      18      42      78       8
      24      36      15      87      16      24      36      30      39       8
      24      36      30      45       8      24      54     -63      45       8
      27       0      33      66      17      27       0     -33      66      18
      27       0     -33      66      19      27       0      33      69      17
      27       0     -33      69      18      27       0     -33      69      19
      27       0      33      72      17      27       0     -33      72      18
      27       0     -33      72      19      27      21      18      42       8
      27      21      51      84       8      30      36      15      87      16
      30      36      24      54       8      30      39      48      60      21
      30      39     -75      87       8      30      45      -3      60      22
      30      45     -63      54       8      33       0      27      81      15
      36      15      87      75      16      36      24      18      42      14
      36      24      54      63       8      36      30      39      48       8
      36      30     -39      75       8      36      30     -45      63       8
      39      30      45      63       8      42      18      21      51       8
      42      18      24      54      14      42      57     -12      51      16
      42      57      90      96       8      42      78     -93      96       8
      45       3      60      48      15      45      30     -39      48       8
      45      30      39      75       8      48      39      75      87       8
      51      12      57      90      16      51      21      27      81       1
      57      12      51      84      16      57      42      78      93       8
      57      90     -96      93       8      60       3      45      63      22
      60      48      39      75      21      78      42      57      90       8
      78      93     -96      90       8      21      42     -18     -24      25
      27      51     -21     -18      25      36      54     -24     -18      25
      36      39     -30     -45      25      30      24     -36     -15      25
      30      75     -39     -48      25      57      78     -42     -18      25
      30      63     -45      -3      25      84      21     -51     -12      25
      42      90     -57     -12      25      27       9     -81      -6      25
%FLAG EXCLUDED_ATOMS_LIST                                                       
%FORMAT(10I8)                                                                   
       3       4       7       8      10      12      18      23      24      25
      28      34      41      42      43      44      45      46      47      48
      49      11      13      14      16      17      19      21      22      35
      36      38      39      40       4       8      10      28      34      59
       8      10      28      34      59       7       8      10      15      18
      20      27      29      31      33      52      53      54      56       7
       9      11      13      14      16      19      26      30      50      55
       8       9      10      11      13      15      18      19      20      22
      27      28      29      31      32      34      37      51       9      10
      12      13      15      18      19      20      27      28      29      34
      52      53      54      10      11      13      14      15      16      18
      19      20      22      27      30      37      40      12      15      18
      23      24      25      28      29      34      59      13      14      16
      17      19      21      22      26      30      35      36      40      50
      23      24      25      28      34      41      42      43      44      45
      46      47      48      49      14      15      16      17      19      22
      26      30      37      55      16      17      21      22      26      30
      35      36      38      39      50      55      18      19      20      27
      31      32      33      51      56      57      17      19      21      22
      26      37      38      39      40      21      26      30      35      36
      38      39      50      20      28      29      31      34      52      53
      54      22      37      40      27      29      31      32      33      51
      56      58      22      26      35      36      38      39      37      40
      24      25      41      42      43      44      45      46      47      48
      49      25      41      42      43      44      45      46      47      48
      49      41      42      43      44      45      46      47      48      49
      30      35      36      50      55      31      32      33      51      57
      58      34      59      52      53      54      50      55      32      33
      56      57      58      33      51      56      57      58      51      56
      57      58       0      36      38      39      38      39      40      39
       0       0      42      43      43       0      45      46      46       0
      48      49      49       0      55      57      53      54      54       0
       0      58      58       0       0
%FLAG HBOND_ACOEF                                                               
%FORMAT(5E16.8)                                                                 

%FLAG HBOND_BCOEF                                                               
%FORMAT(5E16.8)                                                                 

%FLAG HBCUT                                                                     
%FORMAT(5E16.8)                                                                 

%FLAG AMBER_ATOM_TYPE                                                           
%FORMAT(20a4)                                                                   
os  os  oh  o   nb  nb  cp  ca  cp  c3  ca  c3  ca  ca  ca  ca  c3  ca  ca  ca  
c3  ca  c3  c3  c3  ca  ca  c   c3  ca  ca  ca  ca  h1  hc  hc  ha  h1  h1  ha  
hc  hc  hc  hc  hc  hc  hc  hc  hc  ha  ha  hc  hc  hc  h4  ha  ha  ha  ho  
%FLAG TREE_CHAIN_CLASSIFICATION                                                 
%FORMAT(20a4)                                                                   
BLA BLA BLA BLA BLA BLA BLA BLA BLA BLA BLA BLA BLA BLA BLA BLA BLA BLA BLA BLA 
BLA BLA BLA BLA BLA BLA BLA BLA BLA BLA BLA BLA BLA BLA BLA BLA BLA BLA BLA BLA 
BLA BLA BLA BLA BLA BLA BLA BLA BLA BLA BLA BLA BLA BLA BLA BLA BLA BLA BLA 
%FLAG JOIN_ARRAY                                                                
%FORMAT(10I8)                                                                   
       0       0       0       0       0       0       0       0       0       0
       0       0       0       0       0       0       0       0       0       0
       0       0       0       0       0       0       0       0       0       0
       0       0       0       0       0       0       0       0       0       0
       0       0       0       0       0       0       0       0       0       0
       0       0       0       0       0       0       0       0       0
%FLAG IROTAT                                                                    
%FORMAT(10I8)                                                                   
       0       0       0       0       0       0       0       0       0       0
       0       0       0       0       0       0       0       0       0       0
       0       0       0       0       0       0       0       0       0       0
       0       0       0       0       0       0       0       0       0       0
       0       0       0       0       0       0       0       0       0       0
       0       0       0       0       0       0       0       0       0
%FLAG RADIUS_SET                                                                
%FORMAT(1a80)                                                                   
modified Bondi radii (mbondi)                                                   
%FLAG RADII                                                                     
%FORMAT(5E16.8)                                                                 
  1.50000000E+00  1.50000000E+00  1.50000000E+00  1.50000000E+00  1.55000000E+00
  1.55000000E+00  1.70000000E+00  1.70000000E+00  1.70000000E+00  1.70000000E+00
  1.70000000E+00  1.70000000E+00  1.70000000E+00  1.70000000E+00  1.70000000E+00
  1.70000000E+00  1.70000000E+00  1.70000000E+00  1.70000000E+00  1.70000000E+00
  1.70000000E+00  1.70000000E+00  1.70000000E+00  1.70000000E+00  1.70000000E+00
  1.70000000E+00  1.70000000E+00  1.70000000E+00  1.70000000E+00  1.70000000E+00
  1.70000000E+00  1.70000000E+00  1.70000000E+00  1.30000000E+00  1.30000000E+00
  1.30000000E+00  1.30000000E+00  1.30000000E+00  1.30000000E+00  1.30000000E+00
  1.30000000E+00  1.30000000E+00  1.30000000E+00  1.30000000E+00  1.30000000E+00
  1.30000000E+00  1.30000000E+00  1.30000000E+00  1.30000000E+00  1.30000000E+00
  1.30000000E+00  1.30000000E+00  1.30000000E+00  1.30000000E+00  1.30000000E+00
  1.30000000E+00  1.30000000E+00  1.30000000E+00  8.00000000E-01
%FLAG SCREEN                                                                    
%FORMAT(5E16.8)                                                                 
  8.50000000E-01  8.50000000E-01  8.50000000E-01  8.50000000E-01  7.90000000E-01
  7.90000000E-01  7.20000000E-01  7.20000000E-01  7.20000000E-01  7.20000000E-01
  7.20000000E-01  7.20000000E-01  7.20000000E-01  7.20000000E-01  7.20000000E-01
  7.20000000E-01  7.20000000E-01  7.20000000E-01  7.20000000E-01  7.20000000E-01
  7.20000000E-01  7.20000000E-01  7.20000000E-01  7.20000000E-01  7.20000000E-01
  7.20000000E-01  7.20000000E-01  7.20000000E-01  7.20000000E-01  7.20000000E-01
  7.20000000E-01  7.20000000E-01  7.20000000E-01  8.50000000E-01  8.50000000E-01
  8.50000000E-01  8.50000000E-01  8.50000000E-01  8.50000000E-01  8.50000000E-01
  8.50000000E-01  8.50000000E-01  8.50000000E-01  8.50000000E-01  8.50000000E-01
  8.50000000E-01  8.50000000E-01  8.50000000E-01  8.50000000E-01  8.50000000E-01
  8.50000000E-01  8.50000000E-01  8.50000000E-01  8.50000000E-01  8.50000000E-01
  8.50000000E-01  8.50000000E-01  8.50000000E-01  8.50000000E-01
%FLAG IPOL                                                                      
%FORMAT(1I8)                                                                    
       0