ligand.pdb.mol2_GMX.gro created by acpype (v: 2022.7.21) on Tue Mar 24 12:36:21 2026
 59
    1  UNK    O    1   0.022  -0.203   0.047
    1  UNK   O1    2   0.419   0.068   0.160
    1  UNK   O2    3  -0.103  -0.148  -0.282
    1  UNK   O3    4   0.087  -0.252  -0.215
    1  UNK    N    5  -0.394   0.011  -0.036
    1  UNK   N1    6   0.067   0.117  -0.168
    1  UNK    C    7  -0.123   0.036   0.023
    1  UNK   C1    8  -0.172  -0.084  -0.026
    1  UNK   C2    9   0.019   0.046   0.054
    1  UNK   C3   10  -0.083  -0.202  -0.049
    1  UNK   C4   11   0.245   0.094  -0.008
    1  UNK   C5   12   0.019  -0.320   0.127
    1  UNK   C6   13   0.109   0.087  -0.044
    1  UNK   C7   14   0.338   0.132  -0.106
    1  UNK   C8   15  -0.210   0.145   0.043
    1  UNK   C9   16   0.287   0.062   0.122
    1  UNK  C10   17   0.484   0.134  -0.068
    1  UNK  C11   18  -0.307  -0.091  -0.054
    1  UNK  C12   19   0.061   0.012   0.182
    1  UNK  C13   20  -0.346   0.128   0.012
    1  UNK  C14   21   0.495   0.162   0.082
    1  UNK  C15   22   0.195   0.019   0.217
    1  UNK  C16   23   0.034  -0.442   0.035
    1  UNK  C17   24   0.135  -0.312   0.226
    1  UNK  C18   25  -0.115  -0.325   0.201
    1  UNK  C19   26   0.296   0.162  -0.235
    1  UNK  C20   27  -0.163   0.268   0.093
    1  UNK  C21   28  -0.023  -0.206  -0.189
    1  UNK  C22   29  -0.366  -0.217  -0.108
    1  UNK  C23   30   0.160   0.153  -0.260
    1  UNK  C24   31  -0.432   0.236   0.031
    1  UNK  C25   32  -0.251   0.374   0.112
    1  UNK  C26   33  -0.386   0.358   0.081
    1  UNK    H   34  -0.144  -0.292  -0.046
    1  UNK   H1   35   0.527   0.036  -0.092
    1  UNK   H2   36   0.538   0.211  -0.124
    1  UNK   H3   37  -0.011  -0.019   0.258
    1  UNK   H4   38   0.600   0.153   0.113
    1  UNK   H5   39   0.462   0.264   0.106
    1  UNK   H6   40   0.227  -0.007   0.317
    1  UNK   H7   41  -0.051  -0.463  -0.030
    1  UNK   H8   42   0.123  -0.431  -0.029
    1  UNK   H9   43   0.048  -0.533   0.095
    1  UNK  H10   44   0.118  -0.237   0.302
    1  UNK  H11   45   0.229  -0.287   0.174
    1  UNK  H12   46   0.149  -0.408   0.278
    1  UNK  H13   47  -0.138  -0.229   0.248
    1  UNK  H14   48  -0.200  -0.353   0.139
    1  UNK  H15   49  -0.111  -0.400   0.281
    1  UNK  H16   50   0.365   0.190  -0.313
    1  UNK  H17   51  -0.059   0.285   0.119
    1  UNK  H18   52  -0.317  -0.251  -0.199
    1  UNK  H19   53  -0.472  -0.201  -0.133
    1  UNK  H20   54  -0.364  -0.296  -0.032
    1  UNK  H21   55   0.121   0.176  -0.359
    1  UNK  H22   56  -0.537   0.225   0.008
    1  UNK  H23   57  -0.215   0.469   0.150
    1  UNK  H24   58  -0.455   0.440   0.095
    1  UNK  H25   59  -0.062  -0.150  -0.371
   22.74000    20.02400    13.77000