ligand.pdb
    59
   0.2190000  -2.0280000   0.4740000   4.1920000   0.6820000   1.5990000
  -1.0260000  -1.4810000  -2.8210000   0.8720000  -2.5240000  -2.1550000
  -3.9360000   0.1130000  -0.3630000   0.6730000   1.1720000  -1.6840000
  -1.2300000   0.3630000   0.2340000  -1.7190000  -0.8380000  -0.2600000
   0.1880000   0.4580000   0.5350000  -0.8340000  -2.0190000  -0.4870000
   2.4520000   0.9430000  -0.0840000   0.1860000  -3.2040000   1.2680000
   1.0920000   0.8690000  -0.4410000   3.3840000   1.3240000  -1.0570000
  -2.0950000   1.4480000   0.4330000   2.8720000   0.6210000   1.2170000
   4.8380000   1.3400000  -0.6790000  -3.0690000  -0.9100000  -0.5400000
   0.6060000   0.1150000   1.8250000  -3.4590000   1.2770000   0.1170000
   4.9490000   1.6170000   0.8170000   1.9520000   0.1890000   2.1680000
   0.3410000  -4.4160000   0.3500000   1.3490000  -3.1250000   2.2550000
  -1.1480000  -3.2520000   2.0120000   2.9570000   1.6170000  -2.3460000
  -1.6310000   2.6770000   0.9320000  -0.2270000  -2.0560000  -1.8850000
  -3.6640000  -2.1710000  -1.0760000   1.6020000   1.5340000  -2.6010000
  -4.3170000   2.3550000   0.3140000  -2.5110000   3.7380000   1.1190000
  -3.8560000   3.5770000   0.8100000  -1.4410000  -2.9200000  -0.4550000
   5.2670000   0.3590000  -0.9160000   5.3820000   2.1080000  -1.2400000
  -0.1110000  -0.1900000   2.5840000   5.9950000   1.5340000   1.1300000
   4.6180000   2.6350000   1.0640000   2.2720000  -0.0680000   3.1730000
  -0.5090000  -4.6250000  -0.3040000   1.2250000  -4.3110000  -0.2890000
   0.4820000  -5.3250000   0.9480000   1.1750000  -2.3660000   3.0210000
   2.2850000  -2.8740000   1.7440000   1.4890000  -4.0770000   2.7790000
  -1.3840000  -2.2880000   2.4760000  -2.0020000  -3.5270000   1.3880000
  -1.1100000  -4.0030000   2.8100000   3.6540000   1.9010000  -3.1270000
  -0.5880000   2.8460000   1.1850000  -3.1740000  -2.5120000  -1.9910000
  -4.7190000  -2.0100000  -1.3320000  -3.6430000  -2.9650000  -0.3230000
   1.2080000   1.7570000  -3.5870000  -5.3750000   2.2540000   0.0800000
  -2.1490000   4.6870000   1.5050000  -4.5500000   4.4000000   0.9530000
  -0.6160000  -1.4970000  -3.7120000